# Forces      
# CofR        : (0.000000e+00 0.000000e+00 0.000000e+00)
# Time        forces(pressure viscous)	moments(pressure viscous)
0             	((0.000000e+00 0.000000e+00 0.000000e+00) (5.955794e-02 3.662562e-05 1.686522e-04)) ((0.000000e+00 0.000000e+00 0.000000e+00) (-4.669645e-08 4.639671e-06 1.391283e-05))
1             	((-1.456297e+00 1.232987e-02 9.615205e-04) (1.221358e-01 -1.830099e-05 -2.533527e-03)) ((-1.607052e-06 -1.591763e-04 -4.411235e-04) (6.218472e-07 -1.944451e-05 2.956586e-05))
2             	((-6.000316e-01 4.595413e-03 3.075628e-03) (1.192201e-01 -1.170449e-04 -1.066392e-03)) ((-1.338876e-06 -3.940220e-05 -2.636426e-04) (2.676043e-07 -4.037160e-06 2.970150e-05))
3             	((6.868926e-02 -3.524585e-04 2.718228e-03) (7.411832e-02 -1.132319e-04 -9.595855e-04)) ((-7.788140e-07 1.938187e-06 -4.785562e-05) (2.490345e-07 -6.560021e-06 1.952916e-05))
4             	((2.165258e-01 -2.035052e-03 8.657102e-04) (3.275731e-02 -1.282575e-04 -7.510335e-04)) ((-1.002163e-07 -1.301593e-07 2.886746e-05) (2.062204e-07 -7.344583e-06 9.980247e-06))
5             	((1.172980e-01 -1.250113e-03 -1.059471e-03) (1.750583e-02 -1.880011e-05 -6.439388e-04)) ((3.858796e-07 -8.407066e-06 1.365112e-05) (1.689979e-07 -6.660705e-06 7.954992e-06))
6             	((1.332092e-02 -5.738799e-04 -1.652857e-03) (1.985101e-02 -9.179502e-06 -5.053738e-04)) ((5.127701e-07 -1.366498e-05 -1.755122e-05) (1.338796e-07 -4.434593e-06 8.866769e-06))
7             	((-2.127188e-02 -5.041363e-05 -1.621857e-03) (2.423818e-02 4.166952e-05 -4.785163e-04)) ((4.472212e-07 -1.784140e-05 -3.419607e-05) (1.202145e-07 -3.294037e-06 9.558150e-06))
8             	((-1.247875e-02 -2.757169e-04 -1.361407e-03) (2.585775e-02 4.804185e-05 -4.262959e-04)) ((4.024672e-07 -1.951649e-05 -3.109087e-05) (1.084097e-07 -2.192780e-06 1.000601e-05))
9             	((2.738414e-03 -7.700178e-04 -1.331810e-03) (2.544580e-02 2.374961e-05 -3.885923e-04)) ((4.467219e-07 -2.087152e-05 -2.287636e-05) (1.033092e-07 -1.531206e-06 1.024735e-05))
10            	((9.551151e-03 -8.381177e-04 -1.329900e-03) (2.454759e-02 -1.933857e-06 -3.602251e-04)) ((4.549733e-07 -2.031921e-05 -2.083073e-05) (9.920350e-08 -1.136137e-06 1.040280e-05))
11            	((9.502595e-03 -3.955123e-04 -1.361692e-03) (2.386985e-02 4.654158e-05 -3.374119e-04)) ((4.055868e-07 -1.914638e-05 -2.556044e-05) (8.632884e-08 -8.683298e-07 9.857772e-06))
12            	((7.727748e-03 -1.461843e-04 -1.495825e-03) (2.363955e-02 8.573200e-05 -3.183021e-04)) ((4.011371e-07 -1.915289e-05 -2.848805e-05) (7.549914e-08 -6.119017e-07 9.540455e-06))
13            	((6.899027e-03 -8.747216e-04 -1.662919e-03) (2.387196e-02 3.599208e-05 -2.909048e-04)) ((5.382221e-07 -1.989722e-05 -2.077933e-05) (7.608260e-08 -1.839773e-07 1.024615e-05))
14            	((7.160878e-03 -9.523549e-04 -1.699776e-03) (2.411489e-02 2.536770e-05 -2.812617e-04)) ((5.611660e-07 -1.955004e-05 -1.940212e-05) (7.422462e-08 8.956085e-08 1.052496e-05))
15            	((7.823765e-03 -4.724136e-04 -1.629730e-03) (2.416799e-02 4.455143e-05 -2.826548e-04)) ((4.815537e-07 -1.824746e-05 -2.366165e-05) (7.111332e-08 2.333295e-07 1.041667e-05))
16            	((8.417366e-03 1.132830e-04 -1.625148e-03) (2.406951e-02 9.920381e-05 -2.826739e-04)) ((3.981986e-07 -1.776226e-05 -2.899200e-05) (6.291004e-08 3.583578e-07 9.908663e-06))
17            	((8.849512e-03 -6.927839e-04 -1.726652e-03) (2.427601e-02 4.123107e-05 -2.693215e-04)) ((5.292306e-07 -1.848586e-05 -1.979718e-05) (6.826006e-08 6.402837e-07 1.063869e-05))
18            	((9.199157e-03 -8.920395e-04 -1.776265e-03) (2.454348e-02 2.509060e-05 -2.646099e-04)) ((5.692389e-07 -1.867569e-05 -1.681291e-05) (6.912176e-08 8.029403e-07 1.092992e-05))
19            	((9.537576e-03 -4.283912e-04 -1.714039e-03) (2.474271e-02 2.552061e-05 -2.621783e-04)) ((4.913187e-07 -1.767554e-05 -2.073171e-05) (6.715572e-08 8.940763e-07 1.100320e-05))
20            	((9.882370e-03 3.616890e-04 -1.693413e-03) (2.470878e-02 1.022592e-04 -2.618806e-04)) ((3.769910e-07 -1.713235e-05 -2.803014e-05) (5.643411e-08 8.990023e-07 1.023909e-05))
21            	((1.022081e-02 -3.905642e-04 -1.783220e-03) (2.495605e-02 4.415954e-05 -2.443742e-04)) ((4.963000e-07 -1.780604e-05 -1.923102e-05) (6.039027e-08 1.105355e-06 1.095894e-05))
22            	((1.053839e-02 -8.437008e-04 -1.860737e-03) (2.529372e-02 1.897709e-05 -2.374983e-04)) ((5.715357e-07 -1.838724e-05 -1.339186e-05) (6.209870e-08 1.205512e-06 1.134990e-05))
23            	((1.082927e-02 -5.831206e-04 -1.793823e-03) (2.558404e-02 -2.006280e-05 -2.326030e-04)) ((5.203248e-07 -1.748673e-05 -1.499406e-05) (6.493364e-08 1.273753e-06 1.185503e-05))
24            	((1.109412e-02 5.032371e-04 -1.740040e-03) (2.558974e-02 1.005051e-04 -2.362797e-04)) ((3.570967e-07 -1.676596e-05 -2.524522e-05) (4.799195e-08 1.206755e-06 1.063455e-05))
25            	((1.133640e-02 1.842303e-04 -1.798561e-03) (2.578805e-02 6.524364e-05 -2.221378e-04)) ((4.106152e-07 -1.728254e-05 -2.093244e-05) (4.935316e-08 1.350887e-06 1.111341e-05))
26            	((1.155935e-02 -7.296477e-04 -1.892355e-03) (2.613080e-02 1.430466e-05 -2.128592e-04)) ((5.488446e-07 -1.821369e-05 -1.029032e-05) (5.500922e-08 1.464939e-06 1.178074e-05))
27            	((1.176530e-02 -8.359051e-04 -1.837782e-03) (2.643270e-02 -5.444167e-05 -2.086563e-04)) ((5.528923e-07 -1.763235e-05 -8.065129e-06) (6.260326e-08 1.520937e-06 1.261246e-05))
28            	((1.195628e-02 4.494922e-04 -1.755985e-03) (2.645580e-02 9.215322e-05 -2.144908e-04)) ((3.560505e-07 -1.682549e-05 -2.043967e-05) (4.227761e-08 1.433531e-06 1.111691e-05))
29            	((1.213403e-02 9.659409e-04 -1.780358e-03) (2.655356e-02 1.226360e-04 -2.064962e-04)) ((2.852433e-07 -1.721228e-05 -2.493859e-05) (3.528117e-08 1.504772e-06 1.089722e-05))
30            	((1.230040e-02 -5.143999e-04 -1.868724e-03) (2.683367e-02 1.958323e-05 -1.956588e-04)) ((4.988124e-07 -1.833996e-05 -8.532400e-06) (4.880453e-08 1.639441e-06 1.210015e-05))
31            	((1.245701e-02 -9.502007e-04 -1.829739e-03) (2.708874e-02 -3.028075e-05 -1.924759e-04)) ((5.504387e-07 -1.818554e-05 -2.945717e-06) (5.455000e-08 1.700624e-06 1.273132e-05))
32            	((1.260528e-02 2.322525e-04 -1.728115e-03) (2.710358e-02 7.797535e-05 -1.989159e-04)) ((3.654702e-07 -1.743274e-05 -1.436520e-05) (4.107386e-08 1.638208e-06 1.161828e-05))
33            	((1.274628e-02 1.442814e-03 -1.708872e-03) (2.706815e-02 1.667278e-04 -1.979411e-04)) ((1.907802e-07 -1.760355e-05 -2.621187e-05) (2.760479e-08 1.658510e-06 1.074909e-05))
34            	((1.288097e-02 -2.510256e-04 -1.783196e-03) (2.724922e-02 3.208189e-05 -1.888215e-04)) ((4.333328e-07 -1.879151e-05 -7.747552e-06) (4.636702e-08 1.809730e-06 1.225381e-05))
35            	((1.300997e-02 -9.188838e-04 -1.766500e-03) (2.742930e-02 4.243196e-06 -1.892828e-04)) ((5.201183e-07 -1.902630e-05 1.610190e-07) (5.043507e-08 1.876684e-06 1.263227e-05))
36            	((1.313357e-02 2.031358e-05 -1.658636e-03) (2.743601e-02 5.545676e-05 -1.978671e-04)) ((3.676094e-07 -1.830667e-05 -8.821050e-06) (4.579770e-08 1.847676e-06 1.210184e-05))
37            	((1.325207e-02 1.611281e-03 -1.612696e-03) (2.727946e-02 1.766583e-04 -2.032014e-04)) ((1.392141e-07 -1.823871e-05 -2.472079e-05) (3.005172e-08 1.839932e-06 1.084866e-05))
38            	((1.336576e-02 6.209647e-05 -1.682543e-03) (2.736517e-02 4.208797e-05 -1.971279e-04)) ((3.669517e-07 -1.937480e-05 -7.922673e-06) (4.897869e-08 1.995750e-06 1.232735e-05))
39            	((1.347507e-02 -8.941403e-04 -1.695723e-03) (2.748809e-02 7.113786e-06 -2.007605e-04)) ((4.965097e-07 -1.987002e-05 2.867311e-06) (5.558697e-08 2.062355e-06 1.276293e-05))
40            	((1.358053e-02 -2.938378e-04 -1.589308e-03) (2.750331e-02 2.782079e-06 -2.085904e-04)) ((3.921756e-07 -1.906738e-05 -2.686570e-06) (5.780041e-08 2.072574e-06 1.281794e-05))
41            	((1.368278e-02 1.510136e-03 -1.523557e-03) (2.729197e-02 1.680869e-04 -2.195388e-04)) ((1.333284e-07 -1.865458e-05 -2.093432e-05) (3.707138e-08 2.016439e-06 1.107931e-05))
42            	((1.378249e-02 5.850318e-04 -1.579786e-03) (2.727900e-02 6.773886e-05 -2.151281e-04)) ((2.747866e-07 -1.948646e-05 -1.087633e-05) (5.065936e-08 2.146303e-06 1.218461e-05))
43            	((1.388042e-02 -8.359089e-04 -1.637423e-03) (2.737367e-02 2.388533e-06 -2.160500e-04)) ((4.737912e-07 -2.026822e-05 4.530292e-06) (6.169578e-08 2.230971e-06 1.293425e-05))
44            	((1.397732e-02 -7.179696e-04 -1.564357e-03) (2.739679e-02 -4.956457e-05 -2.213593e-04)) ((4.456551e-07 -1.961258e-05 3.827892e-06) (6.965413e-08 2.250890e-06 1.350129e-05))
45            	((1.407391e-02 1.253571e-03 -1.490532e-03) (2.720078e-02 1.530866e-04 -2.333211e-04)) ((1.634895e-07 -1.889640e-05 -1.636235e-05) (4.328307e-08 2.157702e-06 1.136263e-05))
46            	((1.417088e-02 1.304598e-03 -1.534832e-03) (2.712043e-02 1.264370e-04 -2.308862e-04)) ((1.671292e-07 -1.937938e-05 -1.673431e-05) (4.559649e-08 2.216932e-06 1.169277e-05))
47            	((1.426882e-02 -7.237385e-04 -1.618868e-03) (2.719744e-02 4.980200e-06 -2.270928e-04)) ((4.523578e-07 -2.022685e-05 4.742325e-06) (6.405639e-08 2.298039e-06 1.303043e-05))
48            	((1.436821e-02 -1.127460e-03 -1.584473e-03) (2.724081e-02 -6.005827e-05 -2.286387e-04)) ((5.018805e-07 -1.977872e-05 9.321773e-06) (7.286730e-08 2.301105e-06 1.375228e-05))
49            	((1.446938e-02 8.111145e-04 -1.511163e-03) (2.708428e-02 1.322088e-04 -2.359565e-04)) ((2.241327e-07 -1.889004e-05 -1.069531e-05) (4.745419e-08 2.195410e-06 1.171734e-05))
50            	((1.457259e-02 1.901359e-03 -1.540273e-03) (2.696511e-02 1.818262e-04 -2.328812e-04)) ((8.195434e-08 -1.906285e-05 -2.208018e-05) (3.832141e-08 2.181980e-06 1.124815e-05))
51            	((1.467792e-02 -5.045605e-04 -1.632586e-03) (2.702628e-02 1.308924e-05 -2.240011e-04)) ((4.200338e-07 -1.988481e-05 3.123310e-06) (6.218269e-08 2.233727e-06 1.308358e-05))
52            	((1.478540e-02 -1.420803e-03 -1.629831e-03) (2.709603e-02 -6.026788e-05 -2.204123e-04)) ((5.442641e-07 -1.968961e-05 1.295437e-05) (7.154652e-08 2.209624e-06 1.391106e-05))
53            	((1.489492e-02 3.317670e-04 -1.558940e-03) (2.697893e-02 1.009840e-04 -2.229071e-04)) ((2.902492e-07 -1.877725e-05 -5.205088e-06) (4.914809e-08 2.071417e-06 1.220051e-05))
54            	((1.500633e-02 2.250632e-03 -1.566943e-03) (2.682721e-02 2.258264e-04 -2.176312e-04)) ((3.092965e-08 -1.870748e-05 -2.530076e-05) (2.929785e-08 1.985561e-06 1.093789e-05))
55            	((1.511952e-02 -1.752257e-04 -1.662855e-03) (2.687062e-02 2.850303e-05 -2.031660e-04)) ((3.761256e-07 -1.957385e-05 -4.057167e-08) (5.507510e-08 2.000891e-06 1.307442e-05))
56            	((1.523428e-02 -1.518547e-03 -1.684148e-03) (2.695742e-02 -3.426560e-05 -1.935346e-04)) ((5.572942e-07 -1.965819e-05 1.418469e-05) (6.182709e-08 1.950202e-06 1.380413e-05))
57            	((1.535046e-02 -2.335364e-04 -1.612271e-03) (2.688754e-02 4.314658e-05 -1.912711e-04)) ((3.663331e-07 -1.877781e-05 8.639474e-07) (5.046521e-08 1.778693e-06 1.298070e-05))
58            	((1.546790e-02 2.282909e-03 -1.591043e-03) (2.671532e-02 2.437126e-04 -1.849949e-04)) ((1.847602e-08 -1.845679e-05 -2.546686e-05) (1.942078e-08 1.613590e-06 1.091355e-05))
59            	((1.558650e-02 3.995036e-04 -1.675369e-03) (2.671958e-02 5.664677e-05 -1.672440e-04)) ((2.929350e-07 -1.927354e-05 -5.977206e-06) (4.286965e-08 1.575851e-06 1.294621e-05))
60            	((1.570614e-02 -1.467698e-03 -1.714803e-03) (2.681431e-02 -1.317913e-05 -1.517853e-04)) ((5.448645e-07 -1.963258e-05 1.366760e-05) (5.061111e-08 1.511550e-06 1.375812e-05))
61            	((1.582666e-02 -8.835363e-04 -1.647750e-03) (2.678918e-02 -2.559655e-05 -1.442100e-04)) ((4.521308e-07 -1.889278e-05 7.672445e-06) (5.090606e-08 1.334052e-06 1.389671e-05))
62            	((1.594797e-02 1.933785e-03 -1.598546e-03) (2.663671e-02 2.241797e-04 -1.376713e-04)) ((5.867275e-08 -1.837246e-05 -2.177191e-05) (1.297405e-08 1.116367e-06 1.130255e-05))
63            	((1.606995e-02 1.206994e-03 -1.663887e-03) (2.660355e-02 1.171040e-04 -1.202565e-04)) ((1.738925e-07 -1.908897e-05 -1.441359e-05) (2.383352e-08 1.021595e-06 1.250459e-05))
64            	((1.619245e-02 -1.287511e-03 -1.714970e-03) (2.669945e-02 -1.349323e-05 -1.015113e-04)) ((5.106150e-07 -1.967210e-05 1.169155e-05) (4.057647e-08 9.557775e-07 1.395832e-05))
65            	((1.631534e-02 -1.340315e-03 -1.662060e-03) (2.672255e-02 -5.108954e-05 -8.981831e-05)) ((5.070625e-07 -1.917564e-05 1.237580e-05) (4.288154e-08 8.052528e-07 1.439058e-05))
66            	((1.643840e-02 1.363365e-03 -1.591359e-03) (2.660985e-02 1.929895e-04 -8.221038e-05)) ((1.285366e-07 -1.851719e-05 -1.587221e-05) (6.965751e-09 5.953417e-07 1.184874e-05))
67            	((1.656137e-02 1.897754e-03 -1.625292e-03) (2.654999e-02 1.783795e-04 -6.727158e-05)) ((6.578853e-08 -1.898622e-05 -2.170682e-05) (4.359103e-09 4.760779e-07 1.208782e-05))
68            	((1.668399e-02 -1.013660e-03 -1.682935e-03) (2.663737e-02 -6.542934e-06 -4.901126e-05)) ((4.608613e-07 -1.972098e-05 8.654050e-06) (2.917516e-08 4.243294e-07 1.411709e-05))
69            	((1.680594e-02 -1.695666e-03 -1.654026e-03) (2.669888e-02 -6.961554e-05 -3.734067e-05)) ((5.474011e-07 -1.955465e-05 1.592948e-05) (3.527893e-08 3.153444e-07 1.484210e-05))
70            	((1.692693e-02 8.225541e-04 -1.575551e-03) (2.662056e-02 1.561309e-04 -3.212762e-05)) ((1.929342e-07 -1.888597e-05 -1.034898e-05) (2.569859e-09 1.370932e-07 1.249181e-05))
71            	((1.704661e-02 2.399133e-03 -1.584153e-03) (2.654371e-02 2.271403e-04 -2.138370e-05)) ((-1.317115e-08 -1.915882e-05 -2.704571e-05) (-1.095727e-08 3.858945e-08 1.183987e-05))
72            	((1.716468e-02 -6.346393e-04 -1.647034e-03) (2.661900e-02 6.927569e-06 -7.017342e-06)) ((4.043521e-07 -2.002345e-05 4.510989e-06) (1.922746e-08 2.641057e-08 1.424684e-05))
73            	((1.728083e-02 -1.984127e-03 -1.636203e-03) (2.671407e-02 -8.109599e-05 1.204478e-06)) ((5.817387e-07 -2.012612e-05 1.876677e-05) (3.011809e-08 -1.771104e-08 1.525801e-05))
74            	((1.739481e-02 1.505379e-04 -1.549762e-03) (2.665984e-02 9.578127e-05 6.081227e-07)) ((2.769674e-07 -1.945543e-05 -3.476169e-06) (5.556600e-09 -1.438714e-07 1.342241e-05))
75            	((1.750635e-02 2.726235e-03 -1.530388e-03) (2.658016e-02 2.675762e-04 2.556526e-06)) ((-6.948003e-08 -1.951987e-05 -3.056704e-05) (-2.006635e-08 -2.140859e-07 1.172033e-05))
76            	((1.761518e-02 5.312518e-05 -1.584125e-03) (2.661931e-02 3.592321e-05 9.910803e-06)) ((3.026293e-07 -2.037867e-05 -2.872469e-06) (1.285537e-08 -1.748819e-07 1.425607e-05))
77            	((1.772111e-02 -2.085265e-03 -1.586278e-03) (2.674071e-02 -7.677199e-05 1.486353e-05)) ((5.862685e-07 -2.071046e-05 1.960439e-05) (2.945847e-08 -1.117891e-07 1.554871e-05))
78            	((1.782397e-02 -6.510472e-04 -1.505615e-03) (2.669590e-02 2.006999e-05 8.022260e-06)) ((3.795444e-07 -2.018869e-05 4.707929e-06) (1.785580e-08 -1.586483e-07 1.455898e-05))
79            	((1.792366e-02 2.675644e-03 -1.459609e-03) (2.663420e-02 2.917974e-04 2.241364e-07)) ((-7.580110e-08 -2.005803e-05 -3.016928e-05) (-2.001566e-08 -1.802864e-07 1.180768e-05))
80            	((1.802008e-02 9.840153e-04 -1.502330e-03) (2.663914e-02 1.091027e-04 -2.823645e-06)) ((1.633719e-07 -2.088144e-05 -1.280930e-05) (7.242500e-09 -1.056874e-07 1.384223e-05))
81            	((1.811323e-02 -1.889634e-03 -1.511948e-03) (2.676405e-02 -3.462051e-05 -2.738393e-06)) ((5.424060e-07 -2.136738e-05 1.725797e-05) (3.035770e-08 5.596073e-08 1.547298e-05))
82            	((1.820302e-02 -1.312029e-03 -1.445780e-03) (2.675303e-02 -6.181174e-06 -1.670926e-05)) ((4.514765e-07 -2.105994e-05 1.130288e-05) (3.050363e-08 8.637244e-08 1.522133e-05))
83            	((1.828945e-02 2.206196e-03 -1.379072e-03) (2.671179e-02 2.851578e-04 -3.011505e-05)) ((-3.569001e-08 -2.075975e-05 -2.557249e-05) (-7.497771e-09 1.514584e-07 1.225104e-05))
84            	((1.837249e-02 1.814017e-03 -1.409967e-03) (2.670304e-02 1.852680e-04 -4.245936e-05)) ((2.734596e-08 -2.149176e-05 -2.186086e-05) (9.848044e-09 2.629357e-07 1.343099e-05))
85            	((1.845213e-02 -1.566286e-03 -1.417636e-03) (2.681706e-02 -2.800871e-06 -4.963837e-05)) ((4.715072e-07 -2.197532e-05 1.336317e-05) (4.179323e-08 4.743206e-07 1.553268e-05))
86            	((1.852840e-02 -1.820175e-03 -1.365962e-03) (2.685499e-02 -2.751229e-05 -6.726917e-05)) ((4.920592e-07 -2.181861e-05 1.607137e-05) (5.066077e-08 5.904908e-07 1.586611e-05))
87            	((1.860129e-02 1.513326e-03 -1.291755e-03) (2.683185e-02 2.505577e-04 -8.678149e-05)) ((2.697901e-08 -2.141394e-05 -1.888302e-05) (1.703976e-08 6.990250e-07 1.302178e-05))
88            	((1.867081e-02 2.408306e-03 -1.307130e-03) (2.681165e-02 2.503620e-04 -1.038531e-04)) ((-8.494479e-08 -2.193535e-05 -2.866835e-05) (2.131075e-08 8.505825e-07 1.316111e-05))
89            	((1.873696e-02 -1.138343e-03 -1.333972e-03) (2.691393e-02 1.920498e-05 -1.159011e-04)) ((3.859990e-07 -2.255033e-05 8.130839e-06) (6.048018e-08 1.086034e-06 1.571522e-05))
90            	((1.879977e-02 -2.186807e-03 -1.307075e-03) (2.699660e-02 -4.374370e-05 -1.337396e-04)) ((5.140422e-07 -2.256123e-05 1.909362e-05) (7.484293e-08 1.267642e-06 1.647185e-05))
91            	((1.885938e-02 6.964289e-04 -1.230445e-03) (2.698891e-02 1.930929e-04 -1.567038e-04)) ((1.094365e-07 -2.201483e-05 -1.116907e-05) (4.829051e-08 1.387867e-06 1.404722e-05))
92            	((1.891595e-02 2.765359e-03 -1.227525e-03) (2.696828e-02 3.042793e-04 -1.766021e-04)) ((-1.649787e-07 -2.220987e-05 -3.323040e-05) (3.716542e-08 1.539047e-06 1.301691e-05))
93            	((1.896967e-02 -4.973928e-04 -1.266829e-03) (2.703622e-02 5.293393e-05 -1.904677e-04)) ((2.738578e-07 -2.280735e-05 4.564033e-07) (7.939754e-08 1.764515e-06 1.577928e-05))
94            	((1.902086e-02 -2.467537e-03 -1.266462e-03) (2.715113e-02 -5.630470e-05 -2.042410e-04)) ((5.277540e-07 -2.293722e-05 2.099812e-05) (1.003078e-07 1.991800e-06 1.703368e-05))
95            	((1.906989e-02 -2.405946e-04 -1.204754e-03) (2.713860e-02 1.161302e-04 -2.261327e-04)) ((2.172981e-07 -2.237489e-05 -2.389488e-06) (8.292723e-08 2.106847e-06 1.527102e-05))
96            	((1.911719e-02 2.851225e-03 -1.191094e-03) (2.714884e-02 3.410077e-04 -2.458721e-04)) ((-1.965230e-07 -2.228100e-05 -3.510051e-05) (5.497671e-08 2.235351e-06 1.304150e-05))
97            	((1.916325e-02 4.016291e-04 -1.237297e-03) (2.718139e-02 1.231927e-04 -2.608610e-04)) ((1.372666e-07 -2.277776e-05 -9.997094e-06) (9.122427e-08 2.402406e-06 1.544981e-05))
98            	((1.920862e-02 -2.576566e-03 -1.254075e-03) (2.731655e-02 -5.181611e-05 -2.687569e-04)) ((5.288519e-07 -2.292397e-05 2.102546e-05) (1.209989e-07 2.641915e-06 1.739840e-05))
99            	((1.925383e-02 -1.131425e-03 -1.213382e-03) (2.730184e-02 8.191381e-05 -2.876951e-04)) ((3.267063e-07 -2.242329e-05 5.867051e-06) (1.076436e-07 2.726134e-06 1.603181e-05))
100           	((1.929934e-02 2.608757e-03 -1.190798e-03) (2.734630e-02 3.640835e-04 -3.018153e-04)) ((-1.755641e-07 -2.208791e-05 -3.354106e-05) (7.113317e-08 2.849961e-06 1.318392e-05))
101           	((1.934560e-02 1.320497e-03 -1.236907e-03) (2.736033e-02 2.046193e-04 -3.148224e-04)) ((4.870500e-09 -2.244863e-05 -2.057719e-05) (9.693221e-08 2.960804e-06 1.497766e-05))
102           	((1.939300e-02 -2.404853e-03 -1.256126e-03) (2.749262e-02 -1.752357e-05 -3.173558e-04)) ((4.975198e-07 -2.250483e-05 1.824065e-05) (1.321695e-07 3.178271e-06 1.742004e-05))
103           	((1.944188e-02 -1.868234e-03 -1.240434e-03) (2.748966e-02 5.241772e-05 -3.312947e-04)) ((4.220352e-07 -2.216719e-05 1.268638e-05) (1.263504e-07 3.237740e-06 1.671851e-05))
104           	((1.949235e-02 2.123096e-03 -1.214399e-03) (2.753898e-02 3.636102e-04 -3.409729e-04)) ((-1.169174e-07 -2.170913e-05 -2.918296e-05) (8.426044e-08 3.330480e-06 1.354058e-05))
105           	((1.954446e-02 2.041607e-03 -1.258031e-03) (2.754380e-02 2.777739e-04 -3.505109e-04)) ((-9.163488e-08 -2.196855e-05 -2.874552e-05) (9.824566e-08 3.400461e-06 1.455858e-05))
106           	((1.959814e-02 -1.948993e-03 -1.287021e-03) (2.765704e-02 3.723677e-05 -3.501222e-04)) ((4.402293e-07 -2.205985e-05 1.285827e-05) (1.345255e-07 3.573404e-06 1.718767e-05))
107           	((1.965316e-02 -2.426065e-03 -1.289444e-03) (2.768793e-02 2.534169e-05 -3.592586e-04)) ((5.006110e-07 -2.184899e-05 1.800781e-05) (1.388817e-07 3.619865e-06 1.735195e-05))
108           	((1.970923e-02 1.354569e-03 -1.259067e-03) (2.772690e-02 3.138274e-04 -3.662417e-04)) ((-1.098844e-08 -2.128043e-05 -2.148844e-05) (9.900802e-08 3.675978e-06 1.438269e-05))
109           	((1.976603e-02 2.577613e-03 -1.298711e-03) (2.773576e-02 3.362079e-04 -3.736151e-04)) ((-1.545860e-07 -2.143358e-05 -3.455316e-05) (9.650863e-08 3.710653e-06 1.426443e-05))
110           	((1.982318e-02 -1.218195e-03 -1.330668e-03) (2.780975e-02 7.342063e-05 -3.726608e-04)) ((3.556626e-07 -2.148957e-05 5.013737e-06) (1.352296e-07 3.830622e-06 1.711807e-05))
111           	((1.988031e-02 -2.749277e-03 -1.342953e-03) (2.788123e-02 -1.324980e-06 -3.744482e-04)) ((5.573249e-07 -2.131818e-05 2.127728e-05) (1.468957e-07 3.911204e-06 1.795643e-05))
112           	((1.993706e-02 3.252675e-04 -1.314503e-03) (2.789678e-02 2.248903e-04 -3.803717e-04)) ((1.470251e-07 -2.070743e-05 -1.068388e-05) (1.163094e-07 3.931790e-06 1.561511e-05))
113           	((1.999316e-02 2.818043e-03 -1.336645e-03) (2.793306e-02 3.788303e-04 -3.864560e-04)) ((-1.694394e-07 -2.062717e-05 -3.688131e-05) (9.340281e-08 3.946316e-06 1.410894e-05))
114           	((2.004843e-02 -2.156333e-04 -1.380128e-03) (2.796565e-02 1.389614e-04 -3.881941e-04)) ((2.435234e-07 -2.077092e-05 -5.298609e-06) (1.283084e-07 3.999853e-06 1.671590e-05))
115           	((2.010280e-02 -2.856710e-03 -1.405745e-03) (2.806372e-02 -1.376484e-05 -3.843292e-04)) ((5.951758e-07 -2.072881e-05 2.257883e-05) (1.501814e-07 4.116125e-06 1.837832e-05))
116           	((2.015620e-02 -6.063111e-04 -1.386200e-03) (2.806376e-02 1.780346e-04 -3.900377e-04)) ((2.981596e-07 -2.021535e-05 -6.641517e-07) (1.242724e-07 4.113790e-06 1.638070e-05))
117           	((2.020869e-02 2.743921e-03 -1.388158e-03) (2.814033e-02 4.058112e-04 -3.925815e-04)) ((-1.364452e-07 -1.994549e-05 -3.574641e-05) (9.090992e-08 4.152055e-06 1.408489e-05))
118           	((2.026031e-02 8.085337e-04 -1.428177e-03) (2.815180e-02 2.184826e-04 -3.967775e-04)) ((1.289790e-07 -2.008944e-05 -1.568860e-05) (1.180551e-07 4.161348e-06 1.613660e-05))
119           	((2.031111e-02 -2.814283e-03 -1.447164e-03) (2.825590e-02 -1.371520e-05 -3.906635e-04)) ((6.096321e-07 -2.003082e-05 2.237188e-05) (1.512956e-07 4.289507e-06 1.863369e-05))
120           	((2.036113e-02 -1.422625e-03 -1.443489e-03) (2.824658e-02 1.410991e-04 -3.960498e-04)) ((4.279492e-07 -1.974511e-05 8.133335e-06) (1.310263e-07 4.279828e-06 1.701002e-05))
121           	((2.041041e-02 2.521863e-03 -1.439757e-03) (2.834729e-02 4.171592e-04 -3.973446e-04)) ((-8.880873e-08 -1.948261e-05 -3.312924e-05) (9.144934e-08 4.327013e-06 1.419076e-05))
122           	((2.045899e-02 1.651496e-03 -1.472481e-03) (2.835056e-02 2.879021e-04 -4.024517e-04)) ((3.747082e-08 -1.962114e-05 -2.427980e-05) (1.106253e-07 4.319340e-06 1.562883e-05))
123           	((2.050689e-02 -2.568460e-03 -1.487823e-03) (2.845456e-02 4.996388e-06 -3.960285e-04)) ((5.990564e-07 -1.959817e-05 1.988585e-05) (1.515090e-07 4.445616e-06 1.865820e-05))
124           	((2.055409e-02 -2.150356e-03 -1.493489e-03) (2.844322e-02 1.036959e-04 -4.010150e-04)) ((5.438558e-07 -1.948387e-05 1.578288e-05) (1.393242e-07 4.435162e-06 1.761191e-05))
125           	((2.060062e-02 2.037249e-03 -1.480483e-03) (2.854498e-02 4.023152e-04 -4.025602e-04)) ((-1.115588e-08 -1.919449e-05 -2.801120e-05) (9.710226e-08 4.476397e-06 1.453359e-05))
126           	((2.064650e-02 2.316968e-03 -1.506813e-03) (2.855138e-02 3.511851e-04 -4.081761e-04)) ((-3.428719e-08 -1.933409e-05 -3.125606e-05) (1.053926e-07 4.460334e-06 1.514732e-05))
127           	((2.069174e-02 -1.922418e-03 -1.515562e-03) (2.862443e-02 5.977764e-05 -4.024062e-04)) ((5.305659e-07 -1.930760e-05 1.295043e-05) (1.477151e-07 4.572485e-06 1.826104e-05))
128           	((2.073637e-02 -2.704664e-03 -1.529299e-03) (2.862982e-02 6.660352e-05 -4.049003e-04)) ((6.333188e-07 -1.934219e-05 2.132267e-05) (1.492301e-07 4.587738e-06 1.817567e-05))
129           	((2.078043e-02 1.166352e-03 -1.512170e-03) (2.869484e-02 3.370372e-04 -4.063881e-04)) ((1.198765e-07 -1.906752e-05 -1.912874e-05) (1.115810e-07 4.621727e-06 1.536199e-05))
130           	((2.082398e-02 2.674682e-03 -1.531669e-03) (2.873795e-02 3.983072e-04 -4.131679e-04)) ((-6.383306e-08 -1.919043e-05 -3.522691e-05) (1.039444e-07 4.596838e-06 1.479284e-05))
131           	((2.086705e-02 -9.314340e-04 -1.535170e-03) (2.876463e-02 1.456455e-04 -4.122580e-04)) ((4.161653e-07 -1.915757e-05 2.247273e-06) (1.413266e-07 4.649350e-06 1.749438e-05))
132           	((2.090972e-02 -3.045459e-03 -1.549927e-03) (2.880138e-02 3.813276e-05 -4.111169e-04)) ((6.931502e-07 -1.925021e-05 2.447622e-05) (1.593899e-07 4.704752e-06 1.861343e-05))
133           	((2.095206e-02 1.157438e-04 -1.536316e-03) (2.882954e-02 2.788729e-04 -4.138225e-04)) ((2.745030e-07 -1.904992e-05 -8.485128e-06) (1.268156e-07 4.717813e-06 1.608342e-05))
134           	((2.099412e-02 2.721893e-03 -1.544790e-03) (2.892207e-02 4.278913e-04 -4.174133e-04)) ((-5.482157e-08 -1.909083e-05 -3.601607e-05) (1.066060e-07 4.730212e-06 1.458402e-05))
135           	((2.103596e-02 1.743809e-04 -1.544872e-03) (2.892506e-02 2.207483e-04 -4.212062e-04)) ((2.796741e-07 -1.904704e-05 -9.660803e-06) (1.380328e-07 4.726347e-06 1.680389e-05))
136           	((2.107762e-02 -3.081587e-03 -1.546114e-03) (2.898095e-02 1.930976e-05 -4.160199e-04)) ((7.046113e-07 -1.902253e-05 2.447177e-05) (1.684800e-07 4.822036e-06 1.891728e-05))
137           	((2.111913e-02 -8.660395e-04 -1.545029e-03) (2.898664e-02 2.269657e-04 -4.195492e-04)) ((4.140510e-07 -1.897366e-05 1.499007e-06) (1.416184e-07 4.818000e-06 1.671510e-05))
138           	((2.116053e-02 2.563003e-03 -1.547394e-03) (2.910870e-02 4.408732e-04 -4.207988e-04)) ((-2.929889e-08 -1.896975e-05 -3.453400e-05) (1.118046e-07 4.852670e-06 1.452203e-05))
139           	((2.120186e-02 1.077404e-03 -1.552115e-03) (2.910216e-02 2.855878e-04 -4.265078e-04)) ((1.668763e-07 -1.899328e-05 -1.928079e-05) (1.362255e-07 4.820707e-06 1.619557e-05))
140           	((2.124312e-02 -2.922025e-03 -1.551771e-03) (2.916465e-02 1.359182e-05 -4.200392e-04)) ((6.904883e-07 -1.897304e-05 2.258702e-05) (1.760809e-07 4.923244e-06 1.905516e-05))
141           	((2.128431e-02 -1.678856e-03 -1.558238e-03) (2.915726e-02 1.770310e-04 -4.236539e-04)) ((5.260375e-07 -1.902478e-05 9.859511e-06) (1.556099e-07 4.908074e-06 1.730446e-05))
142           	((2.132546e-02 2.235864e-03 -1.553701e-03) (2.929424e-02 4.272771e-04 -4.235666e-04)) ((1.354482e-08 -1.897100e-05 -3.113787e-05) (1.202836e-07 4.949515e-06 1.471849e-05))
143           	((2.136662e-02 1.812882e-03 -1.558280e-03) (2.929080e-02 3.403224e-04 -4.300240e-04)) ((7.211643e-08 -1.901766e-05 -2.696831e-05) (1.350518e-07 4.899789e-06 1.567609e-05))
144           	((2.140780e-02 -2.503039e-03 -1.550653e-03) (2.933913e-02 2.139490e-05 -4.235427e-04)) ((6.387699e-07 -1.894726e-05 1.815566e-05) (1.813436e-07 4.989662e-06 1.903408e-05))
145           	((2.144899e-02 -2.369829e-03 -1.563483e-03) (2.932216e-02 1.261962e-04 -4.251588e-04)) ((6.175236e-07 -1.909267e-05 1.707391e-05) (1.692095e-07 4.982251e-06 1.789040e-05))
146           	((2.149022e-02 1.654410e-03 -1.558177e-03) (2.944365e-02 3.761990e-04 -4.245370e-04)) ((9.058304e-08 -1.905521e-05 -2.496036e-05) (1.344833e-07 5.014936e-06 1.529375e-05))
147           	((2.153153e-02 2.328515e-03 -1.558747e-03) (2.947499e-02 3.824985e-04 -4.316229e-04)) ((6.154350e-09 -1.908283e-05 -3.223043e-05) (1.350378e-07 4.950970e-06 1.527589e-05))
148           	((2.157297e-02 -1.678084e-03 -1.542113e-03) (2.949302e-02 7.797653e-05 -4.277740e-04)) ((5.319103e-07 -1.893763e-05 9.599163e-06) (1.793968e-07 4.995932e-06 1.849247e-05))
149           	((2.161456e-02 -2.874874e-03 -1.560046e-03) (2.947298e-02 8.207000e-05 -4.257936e-04)) ((6.843028e-07 -1.915581e-05 2.240337e-05) (1.810933e-07 5.012093e-06 1.839975e-05))
150           	((2.165629e-02 8.817414e-04 -1.559916e-03) (2.955742e-02 3.445890e-04 -4.250353e-04)) ((1.908533e-07 -1.918393e-05 -1.672471e-05) (1.442610e-07 5.027180e-06 1.565567e-05))
151           	((2.169818e-02 2.560369e-03 -1.556451e-03) (2.964274e-02 4.161910e-04 -4.291186e-04)) ((-2.327080e-08 -1.917607e-05 -3.448109e-05) (1.351080e-07 4.988571e-06 1.495113e-05))
152           	((2.174026e-02 -5.040334e-04 -1.531619e-03) (2.963622e-02 1.837583e-04 -4.287841e-04)) ((3.708286e-07 -1.894394e-05 -2.558424e-06) (1.687245e-07 4.979267e-06 1.741914e-05))
153           	((2.178254e-02 -3.099606e-03 -1.538142e-03) (2.962155e-02 4.884131e-05 -4.244991e-04)) ((7.054371e-07 -1.904205e-05 2.479908e-05) (1.901470e-07 5.006279e-06 1.878947e-05))
154           	((2.182501e-02 7.536609e-06 -1.554058e-03) (2.966297e-02 3.026007e-04 -4.230865e-04)) ((2.978379e-07 -1.923318e-05 -7.437784e-06) (1.544377e-07 5.008359e-06 1.611719e-05))
155           	((2.186766e-02 2.566257e-03 -1.564476e-03) (2.979303e-02 4.308593e-04 -4.244532e-04)) ((-2.575346e-08 -1.936347e-05 -3.434239e-05) (1.370539e-07 4.991157e-06 1.481771e-05))
156           	((2.191047e-02 5.118250e-04 -1.533947e-03) (2.977307e-02 2.604724e-04 -4.270336e-04)) ((2.349055e-07 -1.905840e-05 -1.300695e-05) (1.621888e-07 4.936618e-06 1.663865e-05))
157           	((2.195347e-02 -3.050296e-03 -1.526544e-03) (2.977551e-02 2.620913e-05 -4.208299e-04)) ((6.952406e-07 -1.899792e-05 2.439422e-05) (1.967246e-07 4.973404e-06 1.906596e-05))
158           	((2.199664e-02 -9.152689e-04 -1.547264e-03) (2.978624e-02 2.404959e-04 -4.202284e-04)) ((4.146802e-07 -1.922691e-05 2.387593e-06) (1.672455e-07 4.950281e-06 1.679051e-05))