# Forces      
# CofR        : (0.000000e+00 0.000000e+00 0.000000e+00)
# Time        forces(pressure viscous)	moments(pressure viscous)
0             	((0.000000e+00 0.000000e+00 0.000000e+00) (0.000000e+00 0.000000e+00 0.000000e+00)) ((0.000000e+00 0.000000e+00 0.000000e+00) (0.000000e+00 0.000000e+00 0.000000e+00))
1             	((3.869405e+00 -1.441058e-01 -4.486347e-03) (-8.040186e-03 8.848464e-05 -1.498601e-04)) ((2.060247e-05 5.501624e-04 2.425394e-03) (1.216655e-07 5.412652e-06 -2.041214e-06))
2             	((3.271676e+00 -1.216014e-01 1.706508e-02) (-1.612403e-01 1.823671e-03 3.577491e-04)) ((1.189679e-05 2.034394e-04 2.139790e-03) (-1.103676e-07 -1.020058e-05 -3.810261e-05))
3             	((1.687393e+00 -6.090010e-02 4.068092e-02) (-1.898097e-01 2.039986e-03 5.382445e-04)) ((-2.926146e-06 -3.144787e-04 1.102321e-03) (-2.308262e-07 -1.364811e-05 -4.483134e-05))
4             	((1.501314e-01 -1.823882e-03 5.053865e-02) (-1.492891e-01 1.407842e-03 3.621438e-04)) ((-1.380673e-05 -6.288724e-04 1.107834e-04) (-2.009802e-07 -9.709330e-06 -3.500616e-05))
5             	((-9.291556e-01 3.696580e-02 4.244163e-02) (-8.083158e-02 6.159499e-04 -1.275881e-04)) ((-1.659623e-05 -6.663888e-04 -5.848954e-04) (-4.978027e-08 -1.686063e-06 -1.917899e-05))
6             	((-1.371545e+00 5.179059e-02 2.626176e-02) (-2.158099e-02 -2.311736e-05 -4.960089e-04)) ((-1.425891e-05 -5.145499e-04 -8.630690e-04) (7.696909e-08 5.247499e-06 -6.215950e-06))
7             	((-1.302005e+00 4.715056e-02 9.023418e-03) (1.125754e-02 -2.788592e-04 -5.051410e-04)) ((-9.021312e-06 -2.864450e-04 -8.341215e-04) (1.024969e-07 7.588274e-06 1.389178e-06))
8             	((-9.093806e-01 3.149783e-02 -3.848834e-03) (1.568267e-02 -2.095236e-04 -2.882856e-04)) ((-3.515481e-06 -7.268216e-05 -6.079750e-04) (5.370993e-08 6.414238e-06 3.043174e-06))
9             	((-3.972746e-01 1.271797e-02 -9.976149e-03) (-1.529467e-04 5.192301e-05 -9.473460e-05)) ((6.256460e-07 7.685612e-05 -3.023638e-04) (2.233033e-10 4.120086e-06 1.287604e-08))
10            	((5.008089e-02 -2.619550e-03 -1.011545e-02) (-2.252132e-02 3.293342e-04 -2.766456e-05)) ((2.758099e-06 1.445978e-04 -2.270307e-05) (-2.216213e-08 2.124576e-06 -5.052106e-06))
11            	((3.348424e-01 -1.183232e-02 -6.443598e-03) (-4.382208e-02 5.568629e-04 -6.286042e-05)) ((3.108704e-06 1.426140e-04 1.624568e-04) (-1.688498e-08 9.812148e-07 -1.021607e-05))
12            	((4.344494e-01 -1.476760e-02 -1.621184e-03) (-5.958186e-02 7.002373e-04 -1.297789e-04)) ((2.341708e-06 9.910503e-05 2.370514e-04) (-1.248708e-09 4.946814e-07 -1.426546e-05))
13            	((3.855836e-01 -1.269649e-02 2.332471e-03) (-6.794260e-02 7.558827e-04 -1.819071e-04)) ((1.127210e-06 4.329272e-05 2.231847e-04) (1.150011e-08 3.325972e-07 -1.663050e-05))
14            	((2.514573e-01 -8.253025e-03 4.396906e-03) (-6.913098e-02 7.404913e-04 -2.082042e-04)) ((7.291830e-08 -3.490470e-06 1.534822e-04) (1.730422e-08 3.931085e-07 -1.725771e-05))
15            	((9.789952e-02 -3.431300e-03 4.479445e-03) (-6.494131e-02 6.794837e-04 -2.090799e-04)) ((-5.559947e-07 -3.041862e-05 6.678674e-05) (1.564510e-08 4.889722e-07 -1.651576e-05))
16            	((-2.632238e-02 3.388445e-04 3.131684e-03) (-5.795585e-02 5.997573e-04 -1.917123e-04)) ((-7.172024e-07 -3.652741e-05 -7.584054e-06) (8.732038e-09 5.253665e-07 -1.499044e-05))
17            	((-9.668950e-02 2.414574e-03 1.171424e-03) (-5.067195e-02 5.234082e-04 -1.663898e-04)) ((-5.278240e-07 -2.720357e-05 -5.375768e-05) (-2.073397e-10 5.182496e-07 -1.328266e-05))
18            	((-1.115344e-01 2.878660e-03 -6.397193e-04) (-4.486060e-02 4.634683e-04 -1.402907e-04)) ((-1.741970e-07 -1.042192e-05 -6.787896e-05) (-8.764441e-09 4.589599e-07 -1.185517e-05))
19            	((-8.538466e-02 2.078542e-03 -1.818152e-03) (-4.128960e-02 4.246553e-04 -1.202427e-04)) ((1.886170e-07 6.332901e-06 -5.833494e-05) (-1.474816e-08 3.958944e-07 -1.092589e-05))
20            	((-3.871017e-02 7.823330e-04 -2.214492e-03) (-3.984961e-02 4.041070e-04 -1.101815e-04)) ((4.258649e-07 1.842550e-05 -3.440782e-05) (-1.685429e-08 3.795870e-07 -1.050185e-05))
21            	((8.667789e-03 -4.661290e-04 -1.947056e-03) (-3.988986e-02 3.951310e-04 -1.093270e-04)) ((5.056756e-07 2.393907e-05 -7.099168e-06) (-1.531403e-08 4.132810e-07 -1.045323e-05))
22            	((4.321189e-02 -1.320522e-03 -1.293999e-03) (-4.057002e-02 3.907919e-04 -1.150386e-04)) ((4.531505e-07 2.354003e-05 1.526234e-05) (-1.132204e-08 4.957700e-07 -1.058782e-05))
23            	((5.920590e-02 -1.705996e-03 -5.596333e-04) (-4.114829e-02 3.857971e-04 -1.225823e-04)) ((3.316231e-07 1.927246e-05 2.752100e-05) (-6.801492e-09 5.827383e-07 -1.072129e-05))
24            	((5.810585e-02 -1.639081e-03 9.005707e-06) (-4.115522e-02 3.769371e-04 -1.275758e-04)) ((1.957969e-07 1.385763e-05 2.991433e-05) (-3.365723e-09 6.241693e-07 -1.073035e-05))
25            	((4.561241e-02 -1.253282e-03 2.979598e-04) (-4.043818e-02 3.630930e-04 -1.276963e-04)) ((8.795686e-08 9.171376e-06 2.524697e-05) (-1.763586e-09 5.989661e-07 -1.056931e-05))
26            	((2.860140e-02 -8.041947e-04 3.117407e-04) (-3.909739e-02 3.453428e-04 -1.229668e-04)) ((3.608621e-08 6.194441e-06 1.635860e-05) (-1.913751e-09 5.200929e-07 -1.025337e-05))
27            	((1.318227e-02 -4.253182e-04 1.307338e-04) (-3.738511e-02 3.257049e-04 -1.155883e-04)) ((3.555199e-08 5.129915e-06 7.051253e-06) (-3.012454e-09 4.345490e-07 -9.839628e-06))
28            	((3.057608e-03 -1.888781e-04 -1.303002e-04) (-3.559429e-02 3.062615e-04 -1.079933e-04)) ((6.764961e-08 5.537136e-06 5.265215e-08) (-4.281006e-09 3.840925e-07 -9.398596e-06))
29            	((-8.558642e-04 -1.249603e-04 -3.692711e-04) (-3.395918e-02 2.888035e-04 -1.020157e-04)) ((1.122271e-07 6.759120e-06 -3.757891e-06) (-5.045379e-09 3.898569e-07 -8.986585e-06))
30            	((4.518830e-04 -1.842402e-04 -5.162375e-04) (-3.260993e-02 2.743027e-04 -9.862178e-05)) ((1.499177e-07 7.953635e-06 -4.452104e-06) (-4.935148e-09 4.520428e-07 -8.634249e-06))
31            	((4.875312e-03 -2.901048e-04 -5.555656e-04) (-3.157105e-02 2.627843e-04 -9.796666e-05)) ((1.678626e-07 8.836441e-06 -2.710934e-06) (-3.890878e-09 5.587570e-07 -8.348843e-06))
32            	((1.007621e-02 -3.894064e-04 -5.064842e-04) (-3.078489e-02 2.536384e-04 -9.901496e-05)) ((1.655689e-07 9.231277e-06 1.981997e-07) (-2.362252e-09 6.761183e-07 -8.119805e-06))
33            	((1.427846e-02 -4.448015e-04 -4.097655e-04) (-3.015272e-02 2.460319e-04 -1.003198e-04)) ((1.475728e-07 9.265220e-06 3.204697e-06) (-9.562259e-10 7.687834e-07 -7.926774e-06))
34            	((1.652157e-02 -4.538821e-04 -3.045731e-04) (-2.957451e-02 2.391093e-04 -1.002482e-04)) ((1.237433e-07 8.996041e-06 5.337508e-06) (-2.124297e-10 8.024208e-07 -7.749851e-06))
35            	((1.671470e-02 -4.249500e-04 -2.208708e-04) (-2.897648e-02 2.322258e-04 -9.806929e-05)) ((1.015532e-07 8.567035e-06 6.231138e-06) (-2.759512e-10 7.689105e-07 -7.574306e-06))
36            	((1.538039e-02 -3.713203e-04 -1.734715e-04) (-2.832344e-02 2.249769e-04 -9.438160e-05)) ((8.506296e-08 8.113073e-06 6.045911e-06) (-7.442274e-10 6.931364e-07 -7.394646e-06))
37            	((1.328859e-02 -3.145444e-04 -1.607780e-04) (-2.761546e-02 2.171909e-04 -9.037744e-05)) ((7.618414e-08 7.686565e-06 5.085139e-06) (-1.114195e-09 6.124716e-07 -7.214001e-06))
38            	((1.118240e-02 -2.695482e-04 -1.725352e-04) (-2.687613e-02 2.090064e-04 -8.742060e-05)) ((7.384282e-08 7.316102e-06 3.795519e-06) (-9.608487e-10 5.646530e-07 -7.037403e-06))
39            	((9.571265e-03 -2.438224e-04 -1.950549e-04) (-2.613846e-02 2.008275e-04 -8.624251e-05)) ((7.586048e-08 7.023149e-06 2.568948e-06) (-6.291248e-11 5.678801e-07 -6.867320e-06))
40            	((8.677204e-03 -2.362501e-04 -2.158997e-04) (-2.543289e-02 1.932537e-04 -8.702261e-05)) ((7.988871e-08 6.788932e-06 1.665798e-06) (1.516720e-09 6.241739e-07 -6.700179e-06))
41            	((8.455706e-03 -2.357589e-04 -2.293502e-04) (-2.477926e-02 1.867979e-04 -8.910846e-05)) ((8.350899e-08 6.678645e-06 1.256342e-06) (3.385759e-09 7.136352e-07 -6.530124e-06))
42            	((8.681530e-03 -2.410090e-04 -2.327814e-04) (-2.418389e-02 1.815795e-04 -9.129830e-05)) ((8.637621e-08 6.665819e-06 1.215657e-06) (4.933007e-09 8.022303e-07 -6.356466e-06))
43            	((9.099030e-03 -2.425901e-04 -2.278037e-04) (-2.364212e-02 1.773503e-04 -9.250549e-05)) ((8.710341e-08 6.726984e-06 1.462481e-06) (5.684330e-09 8.601024e-07 -6.183514e-06))
44            	((9.466854e-03 -2.375424e-04 -2.176115e-04) (-2.314249e-02 1.735792e-04 -9.256554e-05)) ((8.577556e-08 6.812262e-06 1.824364e-06) (5.763061e-09 8.824982e-07 -6.019805e-06))
45            	((9.640894e-03 -2.272514e-04 -2.051910e-04) (-2.267126e-02 1.697619e-04 -9.145842e-05)) ((8.284539e-08 6.864168e-06 2.142555e-06) (5.444424e-09 8.695940e-07 -5.872559e-06))
46            	((9.584632e-03 -2.129581e-04 -1.932816e-04) (-2.221705e-02 1.656062e-04 -8.968217e-05)) ((7.875874e-08 6.848708e-06 2.333951e-06) (5.193550e-09 8.355447e-07 -5.744367e-06))
47            	((9.332817e-03 -1.979868e-04 -1.833328e-04) (-2.177271e-02 1.610687e-04 -8.804035e-05)) ((7.444911e-08 6.753021e-06 2.354522e-06) (5.385576e-09 8.026281e-07 -5.633058e-06))
48            	((8.964967e-03 -1.861233e-04 -1.760306e-04) (-2.133556e-02 1.563559e-04 -8.705349e-05)) ((7.083042e-08 6.590493e-06 2.211421e-06) (6.106036e-09 7.855770e-07 -5.532069e-06))
49            	((8.571827e-03 -1.784576e-04 -1.713157e-04) (-2.090664e-02 1.517492e-04 -8.693246e-05)) ((6.841567e-08 6.396915e-06 1.965786e-06) (7.249671e-09 7.907735e-07 -5.434524e-06))
50            	((8.217107e-03 -1.750738e-04 -1.685308e-04) (-2.048882e-02 1.475410e-04 -8.763111e-05)) ((6.767233e-08 6.207777e-06 1.665522e-06) (8.614975e-09 8.174062e-07 -5.333956e-06))
51            	((7.951833e-03 -1.721138e-04 -1.674001e-04) (-2.008563e-02 1.439471e-04 -8.874467e-05)) ((6.808596e-08 6.064202e-06 1.424187e-06) (9.894339e-09 8.550429e-07 -5.225806e-06))
52            	((7.770707e-03 -1.707127e-04 -1.671891e-04) (-1.969971e-02 1.410315e-04 -8.998342e-05)) ((6.965648e-08 5.976571e-06 1.246158e-06) (1.085434e-08 8.960206e-07 -5.109298e-06))
53            	((7.658591e-03 -1.681858e-04 -1.675251e-04) (-1.933192e-02 1.386076e-04 -9.106131e-05)) ((7.146500e-08 5.949522e-06 1.164497e-06) (1.137163e-08 9.325362e-07 -4.989497e-06))
54            	((7.584946e-03 -1.637338e-04 -1.679560e-04) (-1.898165e-02 1.363370e-04 -9.180195e-05)) ((7.275548e-08 5.967404e-06 1.166251e-06) (1.154839e-08 9.597162e-07 -4.874640e-06))
55            	((7.520190e-03 -1.576566e-04 -1.678050e-04) (-1.864723e-02 1.339896e-04 -9.200743e-05)) ((7.308639e-08 5.997953e-06 1.216452e-06) (1.156553e-08 9.723179e-07 -4.769764e-06))
56            	((7.442548e-03 -1.505944e-04 -1.669908e-04) (-1.832655e-02 1.314020e-04 -9.163167e-05)) ((7.233520e-08 6.018758e-06 1.278416e-06) (1.164947e-08 9.691962e-07 -4.678007e-06))
57            	((7.341889e-03 -1.441488e-04 -1.654246e-04) (-1.801764e-02 1.285477e-04 -9.080164e-05)) ((7.083030e-08 6.013615e-06 1.310706e-06) (1.194084e-08 9.537707e-07 -4.599118e-06))
58            	((7.218483e-03 -1.391035e-04 -1.630638e-04) (-1.771896e-02 1.255454e-04 -8.990477e-05)) ((6.908479e-08 5.971920e-06 1.291010e-06) (1.251249e-08 9.361426e-07 -4.529338e-06))
59            	((7.082382e-03 -1.352150e-04 -1.602393e-04) (-1.742953e-02 1.225600e-04 -8.931056e-05)) ((6.747199e-08 5.899087e-06 1.231546e-06) (1.330284e-08 9.259816e-07 -4.463952e-06))
60            	((6.943171e-03 -1.324496e-04 -1.571746e-04) (-1.714895e-02 1.197999e-04 -8.915886e-05)) ((6.645232e-08 5.806397e-06 1.141523e-06) (1.417543e-08 9.270792e-07 -4.397407e-06))
61            	((6.806375e-03 -1.311613e-04 -1.543893e-04) (-1.687702e-02 1.174384e-04 -8.940521e-05)) ((6.631164e-08 5.710908e-06 1.034636e-06) (1.495399e-08 9.383758e-07 -4.325277e-06))
62            	((6.683069e-03 -1.291929e-04 -1.523800e-04) (-1.661382e-02 1.155109e-04 -9.008997e-05)) ((6.674138e-08 5.634626e-06 9.485365e-07) (1.555668e-08 9.609425e-07 -4.246650e-06))
63            	((6.571398e-03 -1.272099e-04 -1.513051e-04) (-1.635937e-02 1.139280e-04 -9.100146e-05)) ((6.755779e-08 5.585058e-06 8.851528e-07) (1.593685e-08 9.893767e-07 -4.163784e-06))
64            	((6.471492e-03 -1.244336e-04 -1.510282e-04) (-1.611345e-02 1.125007e-04 -9.196174e-05)) ((6.826832e-08 5.561730e-06 8.559516e-07) (1.613780e-08 1.019086e-06 -4.081449e-06))
65            	((6.380421e-03 -1.208250e-04 -1.515107e-04) (-1.587576e-02 1.110100e-04 -9.259137e-05)) ((6.854984e-08 5.563790e-06 8.575081e-07) (1.624156e-08 1.040363e-06 -4.005024e-06))
66            	((6.294381e-03 -1.168624e-04 -1.523339e-04) (-1.564602e-02 1.092968e-04 -9.265994e-05)) ((6.831044e-08 5.579212e-06 8.697349e-07) (1.639486e-08 1.047304e-06 -3.938276e-06))
67            	((6.210729e-03 -1.132024e-04 -1.531727e-04) (-1.542392e-02 1.073430e-04 -9.211481e-05)) ((6.764769e-08 5.596850e-06 8.770174e-07) (1.666447e-08 1.038580e-06 -3.881366e-06))
68            	((6.126069e-03 -1.106174e-04 -1.535893e-04) (-1.520909e-02 1.052214e-04 -9.119147e-05)) ((6.681733e-08 5.603458e-06 8.620071e-07) (1.706695e-08 1.020244e-06 -3.832198e-06))
69            	((6.040493e-03 -1.092945e-04 -1.532396e-04) (-1.500104e-02 1.030718e-04 -9.019959e-05)) ((6.606060e-08 5.588471e-06 8.190290e-07) (1.754523e-08 1.000202e-06 -3.787003e-06))
70            	((5.954646e-03 -1.089133e-04 -1.517172e-04) (-1.479931e-02 1.010807e-04 -8.945918e-05)) ((6.552979e-08 5.541760e-06 7.508868e-07) (1.805704e-08 9.866462e-07 -3.740831e-06))
71            	((5.871117e-03 -1.087579e-04 -1.492373e-04) (-1.460355e-02 9.939299e-05 -8.918117e-05)) ((6.524526e-08 5.469106e-06 6.745241e-07) (1.852422e-08 9.849728e-07 -3.689826e-06))
72            	((5.790267e-03 -1.086105e-04 -1.464021e-04) (-1.441352e-02 9.805413e-05 -8.941512e-05)) ((6.522057e-08 5.385915e-06 6.014187e-07) (1.888905e-08 9.964892e-07 -3.632749e-06))
73            	((5.711159e-03 -1.083400e-04 -1.439663e-04) (-1.422889e-02 9.699795e-05 -9.005745e-05)) ((6.536034e-08 5.312408e-06 5.404981e-07) (1.911670e-08 1.018579e-06 -3.571265e-06))
74            	((5.635253e-03 -1.072125e-04 -1.426807e-04) (-1.404936e-02 9.606748e-05 -9.096946e-05)) ((6.545353e-08 5.268411e-06 5.066182e-07) (1.926643e-08 1.047686e-06 -3.509306e-06))
75            	((5.561964e-03 -1.054846e-04 -1.425859e-04) (-1.387474e-02 9.507824e-05 -9.168189e-05)) ((6.538902e-08 5.255606e-06 4.934165e-07) (1.938368e-08 1.071852e-06 -3.451462e-06))
76            	((5.491909e-03 -1.032695e-04 -1.433726e-04) (-1.370496e-02 9.390898e-05 -9.188519e-05)) ((6.508566e-08 5.266684e-06 4.919044e-07) (1.951932e-08 1.083188e-06 -3.400680e-06))
77            	((5.424239e-03 -1.014703e-04 -1.447380e-04) (-1.354004e-02 9.249962e-05 -9.136960e-05)) ((6.465461e-08 5.292892e-06 4.856391e-07) (1.968879e-08 1.076359e-06 -3.358365e-06))
78            	((5.357705e-03 -1.006782e-04 -1.460803e-04) (-1.337996e-02 9.089510e-05 -9.034973e-05)) ((6.422029e-08 5.318727e-06 4.602782e-07) (1.993143e-08 1.056841e-06 -3.323289e-06))
79            	((5.292851e-03 -1.008146e-04 -1.466862e-04) (-1.322455e-02 8.925020e-05 -8.916308e-05)) ((6.382037e-08 5.325972e-06 4.126488e-07) (2.021871e-08 1.033215e-06 -3.291391e-06))
80            	((5.229172e-03 -1.017221e-04 -1.461199e-04) (-1.307356e-02 8.772949e-05 -8.813931e-05)) ((6.350333e-08 5.303058e-06 3.454416e-07) (2.051010e-08 1.013882e-06 -3.258360e-06))
81            	((5.166943e-03 -1.031873e-04 -1.444034e-04) (-1.292672e-02 8.646616e-05 -8.747318e-05)) ((6.330612e-08 5.250465e-06 2.652612e-07) (2.074441e-08 1.003806e-06 -3.220721e-06))
82            	((5.106533e-03 -1.047889e-04 -1.418189e-04) (-1.278375e-02 8.550937e-05 -8.728089e-05)) ((6.320350e-08 5.175512e-06 1.839254e-07) (2.092509e-08 1.005953e-06 -3.177181e-06))
83            	((5.047572e-03 -1.057920e-04 -1.391125e-04) (-1.264441e-02 8.480139e-05 -8.763607e-05)) ((6.309346e-08 5.096709e-06 1.167890e-07) (2.105008e-08 1.022201e-06 -3.129140e-06))
84            	((4.989978e-03 -1.059241e-04 -1.371289e-04) (-1.250842e-02 8.420169e-05 -8.833892e-05)) ((6.293281e-08 5.035798e-06 7.497548e-08) (2.113569e-08 1.047458e-06 -3.080116e-06))
85            	((4.933612e-03 -1.052866e-04 -1.364651e-04) (-1.237563e-02 8.352657e-05 -8.896478e-05)) ((6.271494e-08 5.008182e-06 5.662684e-08) (2.118970e-08 1.070902e-06 -3.034745e-06))
86            	((4.877977e-03 -1.042780e-04 -1.372519e-04) (-1.224600e-02 8.266863e-05 -8.917797e-05)) ((6.247493e-08 5.016824e-06 5.068484e-08) (2.126167e-08 1.083974e-06 -2.995695e-06))
87            	((4.824747e-03 -1.030616e-04 -1.392932e-04) (-1.211962e-02 8.158600e-05 -8.875935e-05)) ((6.221745e-08 5.057191e-06 5.117105e-08) (2.136147e-08 1.081089e-06 -2.963950e-06))
88            	((4.772689e-03 -1.024446e-04 -1.416453e-04) (-1.199660e-02 8.033400e-05 -8.769633e-05)) ((6.201385e-08 5.105123e-06 3.626079e-08) (2.148402e-08 1.061933e-06 -2.938016e-06))
89            	((4.721846e-03 -1.028192e-04 -1.433133e-04) (-1.187690e-02 7.904914e-05 -8.631572e-05)) ((6.187303e-08 5.135309e-06 -1.687671e-09) (2.159616e-08 1.034826e-06 -2.914354e-06))
90            	((4.671608e-03 -1.042767e-04 -1.436637e-04) (-1.176033e-02 7.785920e-05 -8.503341e-05)) ((6.180927e-08 5.131337e-06 -6.391994e-08) (2.171166e-08 1.010366e-06 -2.889683e-06))
91            	((4.622225e-03 -1.062439e-04 -1.425374e-04) (-1.164668e-02 7.686997e-05 -8.410612e-05)) ((6.176147e-08 5.089665e-06 -1.393783e-07) (2.181135e-08 9.950853e-07 -2.861261e-06))
92            	((4.574713e-03 -1.079904e-04 -1.404163e-04) (-1.153577e-02 7.614282e-05 -8.369101e-05)) ((6.167527e-08 5.022147e-06 -2.086618e-07) (2.187817e-08 9.929751e-07 -2.827478e-06))
93            	((4.528213e-03 -1.091444e-04 -1.380967e-04) (-1.142738e-02 7.562438e-05 -8.376934e-05)) ((6.154657e-08 4.948989e-06 -2.642337e-07) (2.189533e-08 1.003570e-06 -2.789643e-06))
94            	((4.481893e-03 -1.096610e-04 -1.363433e-04) (-1.132128e-02 7.519954e-05 -8.422021e-05)) ((6.141494e-08 4.889703e-06 -3.000096e-07) (2.190185e-08 1.023784e-06 -2.750658e-06))
95            	((4.437073e-03 -1.091691e-04 -1.358712e-04) (-1.121733e-02 7.471858e-05 -8.474347e-05)) ((6.124956e-08 4.862223e-06 -3.094280e-07) (2.190726e-08 1.045970e-06 -2.714298e-06))
96            	((4.392978e-03 -1.080313e-04 -1.368959e-04) (-1.111554e-02 7.407014e-05 -8.492875e-05)) ((6.110108e-08 4.872543e-06 -3.020751e-07) (2.191882e-08 1.059679e-06 -2.683339e-06))
97            	((4.349905e-03 -1.068494e-04 -1.391629e-04) (-1.101599e-02 7.321614e-05 -8.446022e-05)) ((6.101582e-08 4.914079e-06 -2.924697e-07) (2.191967e-08 1.056848e-06 -2.658705e-06))
98            	((4.308368e-03 -1.059129e-04 -1.420960e-04) (-1.091885e-02 7.220122e-05 -8.342347e-05)) ((6.098710e-08 4.972243e-06 -2.907818e-07) (2.193501e-08 1.039663e-06 -2.639204e-06))
99            	((4.266858e-03 -1.060531e-04 -1.445147e-04) (-1.082414e-02 7.114189e-05 -8.199970e-05)) ((6.105376e-08 5.017117e-06 -3.131693e-07) (2.195291e-08 1.012738e-06 -2.621845e-06))
100           	((4.226690e-03 -1.069428e-04 -1.456836e-04) (-1.073175e-02 7.016224e-05 -8.059061e-05)) ((6.112655e-08 5.029914e-06 -3.543416e-07) (2.196261e-08 9.862988e-07 -2.603447e-06))
101           	((4.186799e-03 -1.084301e-04 -1.453180e-04) (-1.064154e-02 6.936095e-05 -7.943182e-05)) ((6.117229e-08 5.003446e-06 -4.102828e-07) (2.193700e-08 9.663539e-07 -2.581468e-06))
102           	((4.148116e-03 -1.098758e-04 -1.437793e-04) (-1.055331e-02 6.877164e-05 -7.877086e-05)) ((6.115041e-08 4.946919e-06 -4.644391e-07) (2.190339e-08 9.591921e-07 -2.555024e-06))
103           	((4.109391e-03 -1.110165e-04 -1.418082e-04) (-1.046687e-02 6.836460e-05 -7.865477e-05)) ((6.108861e-08 4.879123e-06 -5.100257e-07) (2.185972e-08 9.660197e-07 -2.524850e-06))
104           	((4.071820e-03 -1.112268e-04 -1.401998e-04) (-1.038202e-02 6.804588e-05 -7.892257e-05)) ((6.096943e-08 4.820595e-06 -5.321337e-07) (2.180973e-08 9.827270e-07 -2.493299e-06))
105           	((4.035734e-03 -1.104176e-04 -1.396946e-04) (-1.029868e-02 6.767232e-05 -7.927399e-05)) ((6.081920e-08 4.790357e-06 -5.303210e-07) (2.174229e-08 1.001662e-06 -2.463969e-06))
106           	((3.999512e-03 -1.092132e-04 -1.406463e-04) (-1.021685e-02 6.715024e-05 -7.938399e-05)) ((6.074308e-08 4.797034e-06 -5.160576e-07) (2.168635e-08 1.014540e-06 -2.439222e-06))
107           	((3.963865e-03 -1.079403e-04 -1.428871e-04) (-1.013660e-02 6.644778e-05 -7.895781e-05)) ((6.075401e-08 4.836343e-06 -4.987456e-07) (2.163689e-08 1.013842e-06 -2.419851e-06))
108           	((3.928888e-03 -1.070169e-04 -1.458653e-04) (-1.005808e-02 6.560362e-05 -7.795632e-05)) ((6.085062e-08 4.894287e-06 -4.898466e-07) (2.158626e-08 9.985746e-07 -2.404847e-06))
109           	((3.894707e-03 -1.068302e-04 -1.485144e-04) (-9.981392e-03 6.471764e-05 -7.649165e-05)) ((6.099575e-08 4.943931e-06 -4.991856e-07) (2.150943e-08 9.715889e-07 -2.391641e-06))
110           	((3.861453e-03 -1.073640e-04 -1.500414e-04) (-9.906504e-03 6.388639e-05 -7.499956e-05)) ((6.113655e-08 4.965107e-06 -5.275730e-07) (2.143227e-08 9.439805e-07 -2.377749e-06))
111           	((3.829365e-03 -1.082976e-04 -1.501480e-04) (-9.833313e-03 6.319969e-05 -7.376032e-05)) ((6.120684e-08 4.950252e-06 -5.656218e-07) (2.134861e-08 9.228856e-07 -2.360867e-06))
112           	((3.797239e-03 -1.094030e-04 -1.490291e-04) (-9.761640e-03 6.269783e-05 -7.296357e-05)) ((6.121540e-08 4.904086e-06 -6.070926e-07) (2.125687e-08 9.131314e-07 -2.339958e-06))
113           	((3.765087e-03 -1.102991e-04 -1.474018e-04) (-9.691266e-03 6.235339e-05 -7.264199e-05)) ((6.117055e-08 4.844911e-06 -6.425087e-07) (2.114152e-08 9.155453e-07 -2.315707e-06))
114           	((3.733539e-03 -1.104643e-04 -1.459718e-04) (-9.622020e-03 6.208783e-05 -7.271764e-05)) ((6.107234e-08 4.791077e-06 -6.600756e-07) (2.103377e-08 9.281440e-07 -2.290081e-06))
115           	((3.702516e-03 -1.099118e-04 -1.454893e-04) (-9.553807e-03 6.178227e-05 -7.297685e-05)) ((6.097632e-08 4.761401e-06 -6.578068e-07) (2.093458e-08 9.454759e-07 -2.266084e-06))
116           	((3.672403e-03 -1.087381e-04 -1.463560e-04) (-9.486644e-03 6.135236e-05 -7.305103e-05)) ((6.092375e-08 4.766240e-06 -6.398729e-07) (2.083968e-08 9.581464e-07 -2.245844e-06))
117           	((3.642854e-03 -1.074205e-04 -1.484825e-04) (-9.420655e-03 6.076251e-05 -7.259972e-05)) ((6.095220e-08 4.803507e-06 -6.176363e-07) (2.072623e-08 9.574731e-07 -2.230243e-06))
118           	((3.613517e-03 -1.065259e-04 -1.513597e-04) (-9.355982e-03 6.004354e-05 -7.161575e-05)) ((6.108343e-08 4.859877e-06 -6.058229e-07) (2.061561e-08 9.432640e-07 -2.218487e-06))
119           	((3.584796e-03 -1.061997e-04 -1.540754e-04) (-9.292719e-03 5.928124e-05 -7.020318e-05)) ((6.125423e-08 4.912428e-06 -6.091705e-07) (2.049947e-08 9.181754e-07 -2.208369e-06))
120           	((3.556381e-03 -1.066518e-04 -1.558192e-04) (-9.230860e-03 5.856256e-05 -6.871799e-05)) ((6.142398e-08 4.940241e-06 -6.304628e-07) (2.037630e-08 8.912671e-07 -2.197670e-06))
121           	((3.528868e-03 -1.074760e-04 -1.562260e-04) (-9.170315e-03 5.796240e-05 -6.738070e-05)) ((6.151148e-08 4.934298e-06 -6.623153e-07) (2.022726e-08 8.681488e-07 -2.184474e-06))
122           	((3.501708e-03 -1.085482e-04 -1.554026e-04) (-9.110955e-03 5.751547e-05 -6.645909e-05)) ((6.153565e-08 4.897279e-06 -6.994822e-07) (2.008297e-08 8.556392e-07 -2.167882e-06))
123           	((3.474828e-03 -1.093174e-04 -1.540414e-04) (-9.052599e-03 5.720694e-05 -6.603772e-05)) ((6.147939e-08 4.846250e-06 -7.281177e-07) (1.994272e-08 8.558912e-07 -2.148261e-06))
124           	((3.448340e-03 -1.094158e-04 -1.528034e-04) (-8.995087e-03 5.697440e-05 -6.599083e-05)) ((6.137099e-08 4.798705e-06 -7.405492e-07) (1.980610e-08 8.657037e-07 -2.127177e-06))
125           	((3.421987e-03 -1.090106e-04 -1.522885e-04) (-8.938313e-03 5.671575e-05 -6.612899e-05)) ((6.127616e-08 4.769851e-06 -7.388355e-07) (1.965873e-08 8.802394e-07 -2.107214e-06))
126           	((3.396180e-03 -1.080640e-04 -1.530319e-04) (-8.882275e-03 5.635222e-05 -6.615299e-05)) ((6.122388e-08 4.772912e-06 -7.234601e-07) (1.952329e-08 8.918684e-07 -2.090365e-06))
127           	((3.371134e-03 -1.068897e-04 -1.549691e-04) (-8.827096e-03 5.584990e-05 -6.576492e-05)) ((6.124684e-08 4.806914e-06 -7.029152e-07) (1.939144e-08 8.929958e-07 -2.077471e-06))
128           	((3.346335e-03 -1.059700e-04 -1.577366e-04) (-8.772936e-03 5.523464e-05 -6.486022e-05)) ((6.135635e-08 4.861732e-06 -6.877915e-07) (1.925355e-08 8.809507e-07 -2.067868e-06))
129           	((3.321882e-03 -1.056103e-04 -1.604326e-04) (-8.719894e-03 5.457204e-05 -6.347309e-05)) ((6.151001e-08 4.915084e-06 -6.877137e-07) (1.908781e-08 8.566065e-07 -2.059882e-06))
130           	((3.297495e-03 -1.060394e-04 -1.622831e-04) (-8.667979e-03 5.393509e-05 -6.198721e-05)) ((6.167570e-08 4.947176e-06 -7.063178e-07) (1.892385e-08 8.297263e-07 -2.051651e-06))
131           	((3.273549e-03 -1.068955e-04 -1.629215e-04) (-8.617110e-03 5.339334e-05 -6.065923e-05)) ((6.177299e-08 4.948382e-06 -7.359171e-07) (1.875940e-08 8.068436e-07 -2.041398e-06))
132           	((3.250069e-03 -1.078471e-04 -1.623844e-04) (-8.567172e-03 5.298419e-05 -5.969127e-05)) ((6.178589e-08 4.919851e-06 -7.683825e-07) (1.859550e-08 7.931068e-07 -2.028154e-06))
133           	((3.227221e-03 -1.085343e-04 -1.612178e-04) (-8.518030e-03 5.269791e-05 -5.914506e-05)) ((6.171754e-08 4.875612e-06 -7.944404e-07) (1.841682e-08 7.900861e-07 -2.012151e-06))
134           	((3.204398e-03 -1.088069e-04 -1.600019e-04) (-8.469535e-03 5.248408e-05 -5.899195e-05)) ((6.161354e-08 4.830127e-06 -8.095116e-07) (1.825195e-08 7.970518e-07 -1.994663e-06))
135           	((3.181911e-03 -1.084954e-04 -1.594321e-04) (-8.421574e-03 5.226041e-05 -5.908658e-05)) ((6.150713e-08 4.801230e-06 -8.094416e-07) (1.809899e-08 8.102952e-07 -1.977774e-06))
136           	((3.159850e-03 -1.076702e-04 -1.599959e-04) (-8.374148e-03 5.195603e-05 -5.911311e-05)) ((6.144300e-08 4.801334e-06 -7.962615e-07) (1.795120e-08 8.217652e-07 -1.963278e-06))
137           	((3.138135e-03 -1.066501e-04 -1.617129e-04) (-8.327356e-03 5.153253e-05 -5.873859e-05)) ((6.145248e-08 4.830968e-06 -7.787877e-07) (1.778500e-08 8.229724e-07 -1.952142e-06))
138           	((3.116778e-03 -1.058145e-04 -1.642652e-04) (-8.281352e-03 5.100172e-05 -5.790228e-05)) ((6.154783e-08 4.881944e-06 -7.659031e-07) (1.762136e-08 8.123645e-07 -1.944058e-06))
139           	((3.095631e-03 -1.054453e-04 -1.668738e-04) (-8.236251e-03 5.041755e-05 -5.662876e-05)) ((6.169077e-08 4.934484e-06 -7.647917e-07) (1.745312e-08 7.905693e-07 -1.937652e-06))
140           	((3.074439e-03 -1.057349e-04 -1.687349e-04) (-8.192069e-03 4.984799e-05 -5.522217e-05)) ((6.184078e-08 4.968216e-06 -7.796697e-07) (1.728101e-08 7.653313e-07 -1.931194e-06))
141           	((3.053693e-03 -1.064893e-04 -1.694677e-04) (-8.148746e-03 4.935200e-05 -5.387669e-05)) ((6.193177e-08 4.973506e-06 -8.063338e-07) (1.708827e-08 7.415906e-07 -1.923180e-06))
142           	((3.033351e-03 -1.073729e-04 -1.690660e-04) (-8.106190e-03 4.896521e-05 -5.286521e-05)) ((6.194148e-08 4.950207e-06 -8.372855e-07) (1.690612e-08 7.262973e-07 -1.912691e-06))
143           	((3.013432e-03 -1.080592e-04 -1.679927e-04) (-8.064269e-03 4.869222e-05 -5.229655e-05)) ((6.187623e-08 4.909914e-06 -8.634026e-07) (1.673304e-08 7.222235e-07 -1.899591e-06))
144           	((2.993525e-03 -1.083471e-04 -1.667970e-04) (-8.022842e-03 4.849585e-05 -5.209680e-05)) ((6.177343e-08 4.866648e-06 -8.792085e-07) (1.656732e-08 7.274918e-07 -1.884822e-06))
145           	((2.973936e-03 -1.081382e-04 -1.661061e-04) (-7.981804e-03 4.830419e-05 -5.212159e-05)) ((6.166485e-08 4.836500e-06 -8.821608e-07) (1.639246e-08 7.384183e-07 -1.870207e-06))
146           	((2.954644e-03 -1.074747e-04 -1.664400e-04) (-7.941152e-03 4.804826e-05 -5.213794e-05)) ((6.159946e-08 4.832667e-06 -8.737204e-07) (1.623069e-08 7.490621e-07 -1.857498e-06))
147           	((2.936114e-03 -1.064767e-04 -1.679137e-04) (-7.900986e-03 4.768905e-05 -5.185955e-05)) ((6.158769e-08 4.858165e-06 -8.573854e-07) (1.607344e-08 7.521244e-07 -1.847678e-06))
148           	((2.917409e-03 -1.056138e-04 -1.702377e-04) (-7.861446e-03 4.723259e-05 -5.114099e-05)) ((6.166450e-08 4.905477e-06 -8.444086e-07) (1.591206e-08 7.438982e-07 -1.840594e-06))
149           	((2.898634e-03 -1.052372e-04 -1.726492e-04) (-7.822620e-03 4.671755e-05 -4.994342e-05)) ((6.179389e-08 4.955232e-06 -8.435977e-07) (1.572557e-08 7.233839e-07 -1.835258e-06))
150           	((2.880163e-03 -1.054008e-04 -1.744823e-04) (-7.784553e-03 4.620156e-05 -4.858945e-05)) ((6.192384e-08 4.990578e-06 -8.560321e-07) (1.554364e-08 6.988014e-07 -1.830208e-06))
151           	((2.862017e-03 -1.059711e-04 -1.752795e-04) (-7.747218e-03 4.574019e-05 -4.731489e-05)) ((6.200026e-08 4.999896e-06 -8.790826e-07) (1.536520e-08 6.761587e-07 -1.824024e-06))
152           	((2.844490e-03 -1.066358e-04 -1.749937e-04) (-7.710535e-03 4.537386e-05 -4.632253e-05)) ((6.199213e-08 4.982013e-06 -9.053864e-07) (1.519124e-08 6.606201e-07 -1.815665e-06))
153           	((2.827087e-03 -1.072171e-04 -1.740102e-04) (-7.674385e-03 4.511269e-05 -4.569406e-05)) ((6.191518e-08 4.946685e-06 -9.295603e-07) (1.500547e-08 6.542675e-07 -1.804864e-06))
154           	((2.809608e-03 -1.075442e-04 -1.727767e-04) (-7.638619e-03 4.492805e-05 -4.544252e-05)) ((6.180468e-08 4.905238e-06 -9.471201e-07) (1.483551e-08 6.574279e-07 -1.792345e-06))
155           	((2.792393e-03 -1.073964e-04 -1.719450e-04) (-7.603136e-03 4.476272e-05 -4.547570e-05)) ((6.168553e-08 4.874366e-06 -9.524069e-07) (1.467841e-08 6.677507e-07 -1.779560e-06))
156           	((2.775419e-03 -1.067735e-04 -1.720292e-04) (-7.567926e-03 4.455315e-05 -4.552864e-05)) ((6.159886e-08 4.867114e-06 -9.458402e-07) (1.452736e-08 6.784841e-07 -1.768121e-06))
157           	((2.758948e-03 -1.058608e-04 -1.731789e-04) (-7.533074e-03 4.425451e-05 -4.528717e-05)) ((6.156307e-08 4.887334e-06 -9.326047e-07) (1.435950e-08 6.816203e-07 -1.759162e-06))