# Residuals   
# Time        	p             	Ux            	Uy            	Uz            
0             	N/A	N/A
1             	1.000000e+00	1.000000e+00	1.000000e+00	1.000000e+00
2             	3.254012e-02	5.305949e-01	4.195698e-01	4.039111e-01
3             	5.576676e-02	2.005334e-01	1.992654e-01	1.663915e-01
4             	7.898304e-02	9.825969e-02	1.442158e-01	4.861370e-01
5             	2.149884e-01	4.562474e-02	1.290004e-01	5.114561e-01
6             	1.465051e-01	6.158553e-02	1.398079e-01	3.865815e-01
7             	8.796026e-02	1.073787e-01	1.527819e-01	2.501336e-01
8             	7.355963e-02	1.349424e-01	1.518268e-01	1.546538e-01
9             	7.806012e-02	1.253527e-01	1.437875e-01	2.446712e-01
10            	1.006786e-01	7.772375e-02	1.220378e-01	3.705039e-01
11            	1.631191e-01	4.429689e-02	1.022761e-01	3.594027e-01
12            	9.042458e-02	5.488637e-02	9.031678e-02	2.726187e-01
13            	6.854637e-02	6.191235e-02	7.335563e-02	1.694153e-01
14            	6.343027e-02	5.236513e-02	5.475854e-02	1.016162e-01
15            	6.764820e-02	3.508536e-02	4.305383e-02	1.550266e-01
16            	8.176051e-02	1.998752e-02	3.545232e-02	1.964724e-01
17            	1.033021e-01	1.487865e-02	3.093944e-02	1.797501e-01
18            	8.386792e-02	1.878109e-02	2.814743e-02	1.310020e-01
19            	7.692430e-02	2.138293e-02	2.398736e-02	7.650336e-02
20            	7.728149e-02	1.850186e-02	1.950602e-02	5.827781e-02
21            	8.298709e-02	1.264457e-02	1.720544e-02	8.131066e-02
22            	8.865392e-02	1.030646e-02	1.687871e-02	9.139431e-02
23            	7.867457e-02	1.182120e-02	1.674140e-02	8.082099e-02
24            	7.301480e-02	1.301157e-02	1.540577e-02	5.915627e-02
25            	7.070185e-02	1.261251e-02	1.347720e-02	4.096114e-02
26            	7.077960e-02	1.111769e-02	1.208201e-02	4.038344e-02
27            	7.238383e-02	9.390398e-03	1.108941e-02	4.612065e-02
28            	7.443574e-02	8.040116e-03	1.006689e-02	4.616576e-02
29            	7.585076e-02	7.280852e-03	9.022075e-03	4.045050e-02
30            	7.592452e-02	6.892208e-03	8.112172e-03	3.314591e-02
31            	7.462318e-02	6.635595e-03	7.586396e-03	2.896759e-02
32            	7.240250e-02	6.543515e-03	7.491450e-03	2.911348e-02
33            	6.985997e-02	6.609185e-03	7.528528e-03	2.980157e-02
34            	6.747006e-02	6.705002e-03	7.480401e-03	2.888742e-02
35            	6.547592e-02	6.715764e-03	7.307567e-03	2.683082e-02
36            	6.391865e-02	6.596642e-03	7.066776e-03	2.497489e-02
37            	6.272883e-02	6.373452e-03	6.814757e-03	2.409916e-02
38            	6.176726e-02	6.104276e-03	6.567141e-03	2.375255e-02
39            	6.089742e-02	5.841448e-03	6.323937e-03	2.328459e-02
40            	5.997232e-02	5.619300e-03	6.092954e-03	2.247467e-02
41            	5.892289e-02	5.442895e-03	5.891024e-03	2.156727e-02
42            	5.772396e-02	5.306979e-03	5.726104e-03	2.079427e-02
43            	5.641402e-02	5.201005e-03	5.594039e-03	2.022351e-02
44            	5.504865e-02	5.113240e-03	5.480955e-03	1.975118e-02
45            	5.368692e-02	5.031965e-03	5.373685e-03	1.927277e-02
46            	5.236678e-02	4.947721e-03	5.265668e-03	1.877112e-02
47            	5.110520e-02	4.856220e-03	5.155544e-03	1.828675e-02
48            	4.990848e-02	4.757531e-03	5.044816e-03	1.784636e-02
49            	4.876568e-02	4.655492e-03	4.935486e-03	1.744218e-02
50            	4.766200e-02	4.554906e-03	4.829285e-03	1.705166e-02
51            	4.657996e-02	4.459335e-03	4.727765e-03	1.666430e-02
52            	4.550863e-02	4.370575e-03	4.632128e-03	1.628590e-02
53            	4.444393e-02	4.288863e-03	4.542796e-03	1.592358e-02
54            	4.338651e-02	4.213267e-03	4.459274e-03	1.558233e-02
55            	4.234356e-02	4.142470e-03	4.380737e-03	1.526032e-02
56            	4.132105e-02	4.074964e-03	4.306061e-03	1.495586e-02
57            	4.032368e-02	4.009727e-03	4.234328e-03	1.466595e-02
58            	3.935523e-02	3.945991e-03	4.164993e-03	1.438962e-02
59            	3.841669e-02	3.883638e-03	4.097830e-03	1.412619e-02
60            	3.750738e-02	3.822865e-03	4.032963e-03	1.387440e-02
61            	3.662581e-02	3.763903e-03	3.970293e-03	1.363279e-02
62            	3.576892e-02	3.707101e-03	3.909849e-03	1.340029e-02
63            	3.493620e-02	3.652499e-03	3.851726e-03	1.317726e-02
64            	3.412566e-02	3.600131e-03	3.795873e-03	1.296286e-02
65            	3.333720e-02	3.549897e-03	3.742236e-03	1.275659e-02
66            	3.257136e-02	3.501552e-03	3.690672e-03	1.255913e-02
67            	3.182713e-02	3.454931e-03	3.640949e-03	1.237000e-02
68            	3.110558e-02	3.409844e-03	3.592997e-03	1.218889e-02
69            	3.040676e-02	3.366149e-03	3.546609e-03	1.201485e-02
70            	2.972986e-02	3.323783e-03	3.501723e-03	1.184708e-02
71            	2.907452e-02	3.282687e-03	3.458257e-03	1.168518e-02
72            	2.843996e-02	3.242821e-03	3.416155e-03	1.152886e-02
73            	2.782504e-02	3.204156e-03	3.375342e-03	1.137749e-02
74            	2.722923e-02	3.166682e-03	3.335777e-03	1.123132e-02
75            	2.665202e-02	3.130338e-03	3.297440e-03	1.108989e-02
76            	2.609313e-02	3.095061e-03	3.260291e-03	1.095293e-02
77            	2.555130e-02	3.060811e-03	3.224220e-03	1.082050e-02
78            	2.502628e-02	3.027521e-03	3.189202e-03	1.069206e-02
79            	2.451756e-02	2.995172e-03	3.155160e-03	1.056777e-02
80            	2.402475e-02	2.963673e-03	3.122051e-03	1.044709e-02
81            	2.354730e-02	2.932998e-03	3.089852e-03	1.033012e-02
82            	2.308445e-02	2.903108e-03	3.058455e-03	1.021659e-02
83            	2.263576e-02	2.873968e-03	3.027857e-03	1.010585e-02
84            	2.220071e-02	2.845530e-03	2.997965e-03	9.997938e-03
85            	2.177909e-02	2.817812e-03	2.968832e-03	9.892621e-03
86            	2.136997e-02	2.790748e-03	2.940409e-03	9.789947e-03
87            	2.097313e-02	2.764326e-03	2.912623e-03	9.690074e-03
88            	2.058801e-02	2.738509e-03	2.885475e-03	9.592731e-03
89            	2.021429e-02	2.713267e-03	2.858955e-03	9.497801e-03
90            	1.985164e-02	2.688602e-03	2.833028e-03	9.404692e-03
91            	1.949960e-02	2.664461e-03	2.807694e-03	9.313845e-03
92            	1.915772e-02	2.640807e-03	2.782886e-03	9.225034e-03
93            	1.882567e-02	2.617621e-03	2.758650e-03	9.138093e-03
94            	1.850340e-02	2.594918e-03	2.734941e-03	9.053022e-03
95            	1.819019e-02	2.572679e-03	2.711740e-03	8.969479e-03
96            	1.788584e-02	2.550888e-03	2.689025e-03	8.887584e-03
97            	1.758989e-02	2.529523e-03	2.666794e-03	8.807211e-03
98            	1.730194e-02	2.508557e-03	2.645013e-03	8.728481e-03
99            	1.702197e-02	2.487989e-03	2.623675e-03	8.651253e-03
100           	1.674959e-02	2.467790e-03	2.602765e-03	8.575503e-03
101           	1.648437e-02	2.447968e-03	2.582318e-03	8.500732e-03
102           	1.622623e-02	2.428509e-03	2.562261e-03	8.427042e-03
103           	1.597486e-02	2.409386e-03	2.542580e-03	8.354746e-03
104           	1.572968e-02	2.390585e-03	2.523266e-03	8.283912e-03
105           	1.549081e-02	2.372089e-03	2.504345e-03	8.214352e-03
106           	1.525806e-02	2.353892e-03	2.485811e-03	8.145812e-03
107           	1.503134e-02	2.336003e-03	2.467656e-03	8.078484e-03
108           	1.481035e-02	2.318407e-03	2.449815e-03	8.011995e-03
109           	1.459489e-02	2.301085e-03	2.432303e-03	7.946466e-03
110           	1.438468e-02	2.284030e-03	2.415121e-03	7.882227e-03
111           	1.417971e-02	2.267248e-03	2.398236e-03	7.819143e-03
112           	1.397991e-02	2.250726e-03	2.381625e-03	7.756709e-03
113           	1.378506e-02	2.234442e-03	2.365278e-03	7.695172e-03
114           	1.359474e-02	2.218391e-03	2.349201e-03	7.634394e-03
115           	1.340925e-02	2.202610e-03	2.333390e-03	7.574508e-03
116           	1.322839e-02	2.187079e-03	2.317872e-03	7.515299e-03
117           	1.305167e-02	2.171768e-03	2.302567e-03	7.456702e-03
118           	1.287928e-02	2.156691e-03	2.287498e-03	7.398877e-03
119           	1.271092e-02	2.141809e-03	2.272663e-03	7.341848e-03
120           	1.254638e-02	2.127123e-03	2.258052e-03	7.285474e-03
121           	1.238561e-02	2.112641e-03	2.243658e-03	7.229779e-03
122           	1.222852e-02	2.098348e-03	2.229473e-03	7.174668e-03
123           	1.207477e-02	2.084260e-03	2.215500e-03	7.119978e-03
124           	1.192419e-02	2.070363e-03	2.201741e-03	7.065925e-03
125           	1.177675e-02	2.056657e-03	2.188164e-03	7.012574e-03
126           	1.163236e-02	2.043142e-03	2.174790e-03	6.960049e-03
127           	1.149087e-02	2.029811e-03	2.161601e-03	6.908058e-03
128           	1.135250e-02	2.016657e-03	2.148578e-03	6.856350e-03
129           	1.121709e-02	2.003692e-03	2.135751e-03	6.804987e-03
130           	1.108455e-02	1.990880e-03	2.123105e-03	6.754096e-03
131           	1.095484e-02	1.978234e-03	2.110651e-03	6.703758e-03
132           	1.082782e-02	1.965766e-03	2.098368e-03	6.653817e-03
133           	1.070338e-02	1.953457e-03	2.086225e-03	6.604193e-03
134           	1.058145e-02	1.941322e-03	2.074234e-03	6.555329e-03
135           	1.046200e-02	1.929349e-03	2.062385e-03	6.507093e-03
136           	1.034507e-02	1.917524e-03	2.050677e-03	6.459234e-03
137           	1.023054e-02	1.905846e-03	2.039108e-03	6.411955e-03
138           	1.011837e-02	1.894314e-03	2.027656e-03	6.364921e-03
139           	1.000856e-02	1.882922e-03	2.016324e-03	6.318335e-03
140           	9.901071e-03	1.871672e-03	2.005128e-03	6.272235e-03
141           	9.795705e-03	1.860563e-03	1.994063e-03	6.226889e-03
142           	9.692224e-03	1.849594e-03	1.983133e-03	6.181993e-03
143           	9.590787e-03	1.838756e-03	1.972298e-03	6.137613e-03
144           	9.491193e-03	1.828037e-03	1.961570e-03	6.093819e-03
145           	9.393482e-03	1.817443e-03	1.950946e-03	6.050697e-03
146           	9.297696e-03	1.806973e-03	1.940445e-03	6.007987e-03
147           	9.203686e-03	1.796623e-03	1.930053e-03	5.965803e-03
148           	9.111301e-03	1.786394e-03	1.919772e-03	5.924161e-03
149           	9.020529e-03	1.776282e-03	1.909592e-03	5.883249e-03
150           	8.931398e-03	1.766277e-03	1.899501e-03	5.842869e-03
151           	8.844080e-03	1.756379e-03	1.889505e-03	5.802935e-03
152           	8.758235e-03	1.746597e-03	1.879573e-03	5.763397e-03
153           	8.673891e-03	1.736929e-03	1.869730e-03	5.724370e-03
154           	8.591142e-03	1.727372e-03	1.859989e-03	5.685902e-03
155           	8.510071e-03	1.717918e-03	1.850335e-03	5.647771e-03
156           	8.430568e-03	1.708576e-03	1.840766e-03	5.610103e-03
157           	8.352532e-03	1.699327e-03	1.831277e-03	5.572946e-03
158           	8.275928e-03	1.690183e-03	1.821872e-03	5.536006e-03
159           	8.200668e-03	1.681141e-03	1.812543e-03	5.499672e-03
160           	8.126715e-03	1.672197e-03	1.803290e-03	5.463916e-03
161           	8.053978e-03	1.663357e-03	1.794122e-03	5.428613e-03
162           	7.982449e-03	1.654612e-03	1.785037e-03	5.393669e-03
163           	7.912200e-03	1.645960e-03	1.776011e-03	5.359331e-03
164           	7.843098e-03	1.637398e-03	1.767063e-03	5.325334e-03
165           	7.775177e-03	1.628919e-03	1.758190e-03	5.291890e-03
166           	7.708436e-03	1.620532e-03	1.749385e-03	5.259106e-03
167           	7.642637e-03	1.612228e-03	1.740656e-03	5.226806e-03
168           	7.577765e-03	1.604005e-03	1.731979e-03	5.194782e-03
169           	7.513916e-03	1.595869e-03	1.723364e-03	5.163448e-03
170           	7.451052e-03	1.587815e-03	1.714831e-03	5.132801e-03
171           	7.389064e-03	1.579848e-03	1.706354e-03	5.102629e-03
172           	7.327903e-03	1.571960e-03	1.697908e-03	5.072883e-03
173           	7.267693e-03	1.564152e-03	1.689535e-03	5.043751e-03
174           	7.208521e-03	1.556418e-03	1.681235e-03	5.015159e-03
175           	7.150197e-03	1.548762e-03	1.673017e-03	4.987192e-03
176           	7.092762e-03	1.541176e-03	1.664878e-03	4.959776e-03
177           	7.036323e-03	1.533660e-03	1.656797e-03	4.932812e-03
178           	6.980564e-03	1.526222e-03	1.648763e-03	4.906545e-03
179           	6.925575e-03	1.518861e-03	1.640821e-03	4.880772e-03
180           	6.871507e-03	1.511578e-03	1.632945e-03	4.855566e-03
181           	6.818213e-03	1.504367e-03	1.625136e-03	4.830919e-03
182           	6.765563e-03	1.497230e-03	1.617408e-03	4.806847e-03
183           	6.713545e-03	1.490155e-03	1.609755e-03	4.783393e-03
184           	6.662259e-03	1.483151e-03	1.602154e-03	4.760403e-03
185           	6.611755e-03	1.476226e-03	1.594622e-03	4.737932e-03
186           	6.562174e-03	1.469373e-03	1.587158e-03	4.715824e-03
187           	6.513295e-03	1.462585e-03	1.579735e-03	4.694030e-03
188           	6.464981e-03	1.455860e-03	1.572387e-03	4.672474e-03
189           	6.417242e-03	1.449201e-03	1.565067e-03	4.651263e-03
190           	6.370200e-03	1.442608e-03	1.557798e-03	4.630303e-03
191           	6.323894e-03	1.436075e-03	1.550594e-03	4.609781e-03
192           	6.278140e-03	1.429606e-03	1.543482e-03	4.589615e-03
193           	6.232867e-03	1.423200e-03	1.536426e-03	4.569695e-03
194           	6.188399e-03	1.416864e-03	1.529406e-03	4.550109e-03
195           	6.144561e-03	1.410589e-03	1.522449e-03	4.530838e-03
196           	6.101571e-03	1.404360e-03	1.515569e-03	4.512079e-03
197           	6.059286e-03	1.398191e-03	1.508761e-03	4.493626e-03
198           	6.017515e-03	1.392085e-03	1.502018e-03	4.475471e-03
199           	5.976407e-03	1.386034e-03	1.495345e-03	4.457704e-03
200           	5.935779e-03	1.380041e-03	1.488733e-03	4.440225e-03
201           	5.895674e-03	1.374107e-03	1.482164e-03	4.423174e-03
202           	5.856127e-03	1.368227e-03	1.475638e-03	4.406163e-03
203           	5.817157e-03	1.362399e-03	1.469177e-03	4.389470e-03
204           	5.778852e-03	1.356627e-03	1.462787e-03	4.373018e-03
205           	5.741192e-03	1.350909e-03	1.456439e-03	4.356577e-03
206           	5.704151e-03	1.345257e-03	1.450146e-03	4.340339e-03
207           	5.667514e-03	1.339655e-03	1.443892e-03	4.324255e-03
208           	5.631337e-03	1.334097e-03	1.437706e-03	4.308497e-03
209           	5.595456e-03	1.328590e-03	1.431604e-03	4.292946e-03
210           	5.559974e-03	1.323140e-03	1.425550e-03	4.277858e-03
211           	5.524903e-03	1.317748e-03	1.419542e-03	4.263093e-03
212           	5.490293e-03	1.312407e-03	1.413611e-03	4.248339e-03
213           	5.456332e-03	1.307124e-03	1.407734e-03	4.234166e-03
214           	5.422769e-03	1.301884e-03	1.401902e-03	4.220242e-03
215           	5.389639e-03	1.296703e-03	1.396130e-03	4.206427e-03
216           	5.357004e-03	1.291582e-03	1.390446e-03	4.193238e-03
217           	5.324887e-03	1.286504e-03	1.384803e-03	4.180416e-03
218           	5.293077e-03	1.281471e-03	1.379195e-03	4.167679e-03
219           	5.261454e-03	1.276484e-03	1.373646e-03	4.155055e-03
220           	5.230094e-03	1.271546e-03	1.368135e-03	4.142823e-03
221           	5.199101e-03	1.266649e-03	1.362631e-03	4.130894e-03
222           	5.168504e-03	1.261800e-03	1.357187e-03	4.119285e-03
223           	5.138548e-03	1.257010e-03	1.351790e-03	4.107881e-03
224           	5.108848e-03	1.252269e-03	1.346430e-03	4.096705e-03
225           	5.079227e-03	1.247573e-03	1.341146e-03	4.085957e-03
226           	5.049925e-03	1.242911e-03	1.335902e-03	4.075529e-03
227           	5.020969e-03	1.238289e-03	1.330705e-03	4.064935e-03
228           	4.992374e-03	1.233712e-03	1.325553e-03	4.054686e-03
229           	4.963941e-03	1.229182e-03	1.320461e-03	4.044792e-03
230           	4.935816e-03	1.224695e-03	1.315467e-03	4.035061e-03
231           	4.907966e-03	1.220247e-03	1.310479e-03	4.025323e-03
232           	4.880291e-03	1.215842e-03	1.305545e-03	4.015878e-03
233           	4.852767e-03	1.211476e-03	1.300648e-03	4.006836e-03
234           	4.825543e-03	1.207141e-03	1.295802e-03	3.998014e-03
235           	4.798305e-03	1.202862e-03	1.291019e-03	3.989228e-03
236           	4.771269e-03	1.198635e-03	1.286305e-03	3.980678e-03
237           	4.744501e-03	1.194461e-03	1.281623e-03	3.972239e-03
238           	4.717952e-03	1.190332e-03	1.277015e-03	3.963963e-03
239           	4.691736e-03	1.186237e-03	1.272459e-03	3.956024e-03
240           	4.665954e-03	1.182201e-03	1.267898e-03	3.948115e-03
241           	4.640412e-03	1.178212e-03	1.263381e-03	3.940250e-03
242           	4.615168e-03	1.174253e-03	1.258928e-03	3.932506e-03
243           	4.590234e-03	1.170334e-03	1.254520e-03	3.924869e-03
244           	4.565660e-03	1.166455e-03	1.250155e-03	3.917446e-03
245           	4.541353e-03	1.162620e-03	1.245820e-03	3.910531e-03
246           	4.517245e-03	1.158825e-03	1.241565e-03	3.903378e-03
247           	4.493326e-03	1.155067e-03	1.237353e-03	3.896388e-03
248           	4.469582e-03	1.151367e-03	1.233207e-03	3.889926e-03
249           	4.446089e-03	1.147693e-03	1.229094e-03	3.883457e-03
250           	4.422973e-03	1.144062e-03	1.225037e-03	3.877118e-03
251           	4.400095e-03	1.140465e-03	1.221044e-03	3.871170e-03
252           	4.377375e-03	1.136901e-03	1.217125e-03	3.865482e-03
253           	4.354852e-03	1.133377e-03	1.213227e-03	3.859999e-03
254           	4.332833e-03	1.129896e-03	1.209367e-03	3.854689e-03
255           	4.311253e-03	1.126451e-03	1.205538e-03	3.849847e-03
256           	4.290168e-03	1.123026e-03	1.201751e-03	3.845004e-03
257           	4.269095e-03	1.119629e-03	1.198034e-03	3.840224e-03
258           	4.248221e-03	1.116264e-03	1.194362e-03	3.835755e-03
259           	4.227824e-03	1.112950e-03	1.190728e-03	3.831497e-03
260           	4.207737e-03	1.109663e-03	1.187169e-03	3.827454e-03
261           	4.187933e-03	1.106400e-03	1.183703e-03	3.823541e-03
262           	4.168265e-03	1.103181e-03	1.180239e-03	3.819712e-03
263           	4.148958e-03	1.099987e-03	1.176835e-03	3.815910e-03
264           	4.129966e-03	1.096833e-03	1.173540e-03	3.812463e-03
265           	4.111110e-03	1.093718e-03	1.170270e-03	3.809388e-03
266           	4.092476e-03	1.090638e-03	1.167056e-03	3.806477e-03
267           	4.073899e-03	1.087585e-03	1.163878e-03	3.804054e-03
268           	4.055460e-03	1.084574e-03	1.160761e-03	3.801722e-03
269           	4.037081e-03	1.081593e-03	1.157737e-03	3.799682e-03
270           	4.018802e-03	1.078631e-03	1.154770e-03	3.797761e-03
271           	4.000790e-03	1.075697e-03	1.151852e-03	3.796190e-03
272           	3.983315e-03	1.072798e-03	1.148985e-03	3.794796e-03
273           	3.966178e-03	1.069940e-03	1.146174e-03	3.793220e-03
274           	3.949242e-03	1.067122e-03	1.143438e-03	3.791692e-03
275           	3.932378e-03	1.064333e-03	1.140733e-03	3.790344e-03
276           	3.915753e-03	1.061584e-03	1.138053e-03	3.789040e-03
277           	3.899572e-03	1.058860e-03	1.135405e-03	3.788120e-03
278           	3.883653e-03	1.056160e-03	1.132790e-03	3.787286e-03
279           	3.868009e-03	1.053492e-03	1.130262e-03	3.786528e-03
280           	3.852480e-03	1.050858e-03	1.127767e-03	3.786016e-03
281           	3.836980e-03	1.048252e-03	1.125342e-03	3.785828e-03
282           	3.821536e-03	1.045665e-03	1.122940e-03	3.785460e-03
283           	3.806164e-03	1.043118e-03	1.120560e-03	3.784948e-03
284           	3.791260e-03	1.040605e-03	1.118229e-03	3.785099e-03
285           	3.776553e-03	1.038114e-03	1.115963e-03	3.785750e-03
286           	3.761811e-03	1.035635e-03	1.113768e-03	3.786453e-03
287           	3.747265e-03	1.033184e-03	1.111645e-03	3.787368e-03
288           	3.732853e-03	1.030768e-03	1.109559e-03	3.788466e-03
289           	3.718634e-03	1.028380e-03	1.107546e-03	3.789536e-03
290           	3.704688e-03	1.026011e-03	1.105582e-03	3.790966e-03
291           	3.691021e-03	1.023662e-03	1.103655e-03	3.792463e-03
292           	3.677773e-03	1.021340e-03	1.101740e-03	3.793775e-03
293           	3.664706e-03	1.019043e-03	1.099903e-03	3.795273e-03
294           	3.651689e-03	1.016755e-03	1.098138e-03	3.797192e-03
295           	3.638680e-03	1.014489e-03	1.096437e-03	3.799454e-03
296           	3.625831e-03	1.012257e-03	1.094707e-03	3.801961e-03
297           	3.613308e-03	1.010059e-03	1.093060e-03	3.804352e-03
298           	3.601142e-03	1.007882e-03	1.091484e-03	3.806871e-03
299           	3.588992e-03	1.005731e-03	1.089948e-03	3.809778e-03
300           	3.576942e-03	1.003608e-03	1.088448e-03	3.812825e-03
301           	3.565164e-03	1.001517e-03	1.086979e-03	3.815342e-03
302           	3.553691e-03	9.994414e-04	1.085571e-03	3.818254e-03
303           	3.542313e-03	9.973721e-04	1.084190e-03	3.821721e-03
304           	3.531134e-03	9.953297e-04	1.082826e-03	3.825468e-03
305           	3.520061e-03	9.933130e-04	1.081568e-03	3.829576e-03
306           	3.509218e-03	9.913088e-04	1.080311e-03	3.834054e-03
307           	3.498385e-03	9.893199e-04	1.079103e-03	3.838849e-03
308           	3.487629e-03	9.873556e-04	1.077928e-03	3.843050e-03
309           	3.477055e-03	9.854111e-04	1.076778e-03	3.847896e-03
310           	3.466575e-03	9.834726e-04	1.075654e-03	3.852316e-03
311           	3.456271e-03	9.815613e-04	1.074541e-03	3.856947e-03
312           	3.445971e-03	9.796587e-04	1.073426e-03	3.862127e-03
313           	3.435785e-03	9.777793e-04	1.072348e-03	3.866788e-03
314           	3.425627e-03	9.759179e-04	1.071250e-03	3.871230e-03
315           	3.415440e-03	9.740796e-04	1.070175e-03	3.875799e-03
316           	3.405152e-03	9.722541e-04	1.069058e-03	3.880321e-03
317           	3.394948e-03	9.704356e-04	1.067982e-03	3.885079e-03
318           	3.385046e-03	9.686340e-04	1.066920e-03	3.889527e-03
319           	3.375140e-03	9.668446e-04	1.065873e-03	3.893886e-03
320           	3.365286e-03	9.650702e-04	1.064814e-03	3.898182e-03
321           	3.355525e-03	9.633018e-04	1.063764e-03	3.902546e-03
322           	3.346145e-03	9.615537e-04	1.062771e-03	3.907058e-03
323           	3.337021e-03	9.598173e-04	1.061744e-03	3.911519e-03
324           	3.327870e-03	9.580764e-04	1.060678e-03	3.915381e-03
325           	3.318952e-03	9.563511e-04	1.059630e-03	3.919273e-03
326           	3.310031e-03	9.546474e-04	1.058589e-03	3.922900e-03
327           	3.301128e-03	9.529604e-04	1.057511e-03	3.926349e-03
328           	3.292236e-03	9.512893e-04	1.056394e-03	3.929343e-03
329           	3.283209e-03	9.496227e-04	1.055289e-03	3.931860e-03
330           	3.274256e-03	9.479645e-04	1.054200e-03	3.934399e-03
331           	3.265486e-03	9.463179e-04	1.053145e-03	3.936776e-03
332           	3.256814e-03	9.446804e-04	1.052042e-03	3.939141e-03
333           	3.248201e-03	9.430535e-04	1.050957e-03	3.941377e-03
334           	3.239780e-03	9.414442e-04	1.049896e-03	3.943750e-03
335           	3.231359e-03	9.398445e-04	1.048851e-03	3.945494e-03
336           	3.222887e-03	9.382574e-04	1.047795e-03	3.947363e-03
337           	3.214486e-03	9.366851e-04	1.046696e-03	3.949452e-03
338           	3.206079e-03	9.351249e-04	1.045617e-03	3.951383e-03
339           	3.197949e-03	9.335769e-04	1.044562e-03	3.953449e-03
340           	3.190039e-03	9.320421e-04	1.043556e-03	3.955633e-03
341           	3.182177e-03	9.305255e-04	1.042551e-03	3.957532e-03
342           	3.174173e-03	9.290282e-04	1.041531e-03	3.959815e-03
343           	3.166116e-03	9.275387e-04	1.040515e-03	3.961921e-03
344           	3.158098e-03	9.260594e-04	1.039522e-03	3.964064e-03
345           	3.150004e-03	9.245922e-04	1.038544e-03	3.966220e-03
346           	3.141873e-03	9.231327e-04	1.037551e-03	3.968383e-03
347           	3.133732e-03	9.216787e-04	1.036554e-03	3.970825e-03
348           	3.125722e-03	9.202349e-04	1.035569e-03	3.973104e-03
349           	3.117847e-03	9.188036e-04	1.034589e-03	3.975292e-03
350           	3.109995e-03	9.173871e-04	1.033616e-03	3.977810e-03
351           	3.102315e-03	9.159726e-04	1.032673e-03	3.980490e-03
352           	3.094689e-03	9.145592e-04	1.031729e-03	3.983111e-03
353           	3.087047e-03	9.131492e-04	1.030809e-03	3.985773e-03
354           	3.079407e-03	9.117582e-04	1.029908e-03	3.988534e-03
355           	3.071775e-03	9.103696e-04	1.029028e-03	3.991240e-03
356           	3.064186e-03	9.089971e-04	1.028134e-03	3.993861e-03
357           	3.056656e-03	9.076230e-04	1.027244e-03	3.996539e-03
358           	3.049169e-03	9.062534e-04	1.026392e-03	3.999055e-03
359           	3.041789e-03	9.048897e-04	1.025558e-03	4.001615e-03
360           	3.034390e-03	9.035312e-04	1.024737e-03	4.003901e-03
361           	3.027076e-03	9.021677e-04	1.023927e-03	4.006180e-03
362           	3.019833e-03	9.008136e-04	1.023133e-03	4.008593e-03
363           	3.012712e-03	8.994643e-04	1.022345e-03	4.010837e-03
364           	3.005771e-03	8.981134e-04	1.021565e-03	4.012993e-03
365           	2.998958e-03	8.967701e-04	1.020767e-03	4.015152e-03
366           	2.992127e-03	8.954257e-04	1.019956e-03	4.017393e-03
367           	2.985402e-03	8.940869e-04	1.019165e-03	4.019437e-03
368           	2.978749e-03	8.927439e-04	1.018392e-03	4.021540e-03
369           	2.972107e-03	8.914059e-04	1.017637e-03	4.023486e-03
370           	2.965455e-03	8.900711e-04	1.016902e-03	4.025240e-03
371           	2.958814e-03	8.887347e-04	1.016171e-03	4.027085e-03
372           	2.952215e-03	8.873978e-04	1.015439e-03	4.028880e-03
373           	2.945711e-03	8.860616e-04	1.014727e-03	4.030840e-03
374           	2.939289e-03	8.847350e-04	1.014027e-03	4.032656e-03
375           	2.932941e-03	8.834180e-04	1.013324e-03	4.034442e-03
376           	2.926598e-03	8.821067e-04	1.012632e-03	4.036235e-03
377           	2.920230e-03	8.807885e-04	1.011942e-03	4.037977e-03
378           	2.913877e-03	8.794761e-04	1.011255e-03	4.039765e-03
379           	2.907552e-03	8.781715e-04	1.010587e-03	4.041680e-03
380           	2.901295e-03	8.768694e-04	1.009946e-03	4.043636e-03
381           	2.895099e-03	8.755664e-04	1.009322e-03	4.045597e-03
382           	2.888909e-03	8.742667e-04	1.008696e-03	4.047527e-03
383           	2.882754e-03	8.729728e-04	1.008073e-03	4.049522e-03
384           	2.876626e-03	8.716854e-04	1.007459e-03	4.051481e-03
385           	2.870563e-03	8.704052e-04	1.006851e-03	4.053307e-03
386           	2.864595e-03	8.691233e-04	1.006248e-03	4.055222e-03
387           	2.858689e-03	8.678401e-04	1.005652e-03	4.057222e-03
388           	2.852877e-03	8.665582e-04	1.005050e-03	4.059400e-03
389           	2.847181e-03	8.652781e-04	1.004459e-03	4.061528e-03
390           	2.841541e-03	8.639977e-04	1.003886e-03	4.063605e-03
391           	2.835985e-03	8.627128e-04	1.003325e-03	4.065671e-03
392           	2.830508e-03	8.614311e-04	1.002766e-03	4.067819e-03
393           	2.825095e-03	8.601551e-04	1.002208e-03	4.069952e-03
394           	2.819746e-03	8.588792e-04	1.001663e-03	4.072155e-03
395           	2.814523e-03	8.576026e-04	1.001136e-03	4.074365e-03
396           	2.809391e-03	8.563277e-04	1.000627e-03	4.076625e-03
397           	2.804322e-03	8.550537e-04	1.000125e-03	4.078900e-03
398           	2.799306e-03	8.537795e-04	9.996215e-04	4.081056e-03
399           	2.794393e-03	8.525038e-04	9.991136e-04	4.083284e-03
400           	2.789601e-03	8.512329e-04	9.986054e-04	4.085516e-03
401           	2.784889e-03	8.499628e-04	9.981183e-04	4.087777e-03
402           	2.780242e-03	8.486927e-04	9.976424e-04	4.089966e-03
403           	2.775646e-03	8.474230e-04	9.971735e-04	4.092200e-03
404           	2.771026e-03	8.461500e-04	9.966998e-04	4.094337e-03
405           	2.766484e-03	8.448799e-04	9.962163e-04	4.096584e-03
406           	2.761948e-03	8.436086e-04	9.957426e-04	4.098686e-03
407           	2.757468e-03	8.423388e-04	9.952816e-04	4.100662e-03
408           	2.753080e-03	8.410685e-04	9.948236e-04	4.102612e-03
409           	2.748747e-03	8.398006e-04	9.943682e-04	4.104568e-03
410           	2.744411e-03	8.385298e-04	9.939246e-04	4.106489e-03
411           	2.740100e-03	8.372577e-04	9.934869e-04	4.108363e-03
412           	2.735838e-03	8.359830e-04	9.930559e-04	4.110210e-03
413           	2.731625e-03	8.347075e-04	9.926287e-04	4.112019e-03
414           	2.727435e-03	8.334316e-04	9.921986e-04	4.113757e-03
415           	2.723233e-03	8.321559e-04	9.917741e-04	4.115409e-03
416           	2.719025e-03	8.308784e-04	9.913518e-04	4.117064e-03
417           	2.714828e-03	8.296023e-04	9.909290e-04	4.118569e-03
418           	2.710653e-03	8.283300e-04	9.905116e-04	4.120051e-03
419           	2.706529e-03	8.270578e-04	9.900999e-04	4.121390e-03
420           	2.702424e-03	8.257844e-04	9.896923e-04	4.122571e-03
421           	2.698336e-03	8.245094e-04	9.892810e-04	4.123745e-03
422           	2.694294e-03	8.232347e-04	9.888786e-04	4.124845e-03
423           	2.690197e-03	8.219643e-04	9.884729e-04	4.125840e-03
424           	2.686083e-03	8.206947e-04	9.880667e-04	4.126814e-03
425           	2.681956e-03	8.194227e-04	9.876728e-04	4.127804e-03
426           	2.677842e-03	8.181516e-04	9.872866e-04	4.128642e-03
427           	2.673752e-03	8.168886e-04	9.869035e-04	4.129360e-03
428           	2.669713e-03	8.156295e-04	9.865239e-04	4.130075e-03
429           	2.665692e-03	8.143704e-04	9.861544e-04	4.130783e-03
430           	2.661725e-03	8.131150e-04	9.858009e-04	4.131431e-03
431           	2.657792e-03	8.118629e-04	9.854471e-04	4.131956e-03
432           	2.653920e-03	8.106119e-04	9.850880e-04	4.132318e-03
433           	2.650104e-03	8.093607e-04	9.847406e-04	4.132638e-03
434           	2.646335e-03	8.081132e-04	9.843978e-04	4.132889e-03
435           	2.642608e-03	8.068709e-04	9.840635e-04	4.133058e-03
436           	2.638956e-03	8.056330e-04	9.837356e-04	4.133168e-03
437           	2.635363e-03	8.044004e-04	9.834065e-04	4.133262e-03
438           	2.631797e-03	8.031694e-04	9.830796e-04	4.133351e-03
439           	2.628245e-03	8.019430e-04	9.827760e-04	4.133364e-03
440           	2.624691e-03	8.007193e-04	9.824898e-04	4.133320e-03
441           	2.621116e-03	7.995014e-04	9.822004e-04	4.133271e-03
442           	2.617592e-03	7.982897e-04	9.819220e-04	4.133155e-03
443           	2.614073e-03	7.970831e-04	9.816561e-04	4.132949e-03
444           	2.610552e-03	7.958827e-04	9.813940e-04	4.132632e-03
445           	2.607063e-03	7.946876e-04	9.811347e-04	4.132261e-03
446           	2.603608e-03	7.934980e-04	9.808962e-04	4.131943e-03