# Residuals   
# Time        	p             	Ux            	Uy            	Uz            
0             	N/A	N/A
1             	1.000000e+00	1.000000e+00	1.000000e+00	1.000000e+00
2             	3.236988e-02	5.079518e-01	4.022576e-01	4.167410e-01
3             	6.030340e-02	1.871182e-01	1.876683e-01	1.626781e-01
4             	8.799362e-02	8.790849e-02	1.427603e-01	5.332853e-01
5             	2.735130e-01	4.069517e-02	1.288368e-01	5.219520e-01
6             	1.225121e-01	5.996825e-02	1.370652e-01	3.749529e-01
7             	7.848244e-02	9.870425e-02	1.412173e-01	2.295112e-01
8             	6.699149e-02	1.167071e-01	1.359982e-01	1.326839e-01
9             	6.981859e-02	1.018890e-01	1.290036e-01	2.554774e-01
10            	9.124446e-02	5.850480e-02	1.084888e-01	3.811558e-01
11            	1.340146e-01	3.491089e-02	8.921478e-02	3.540360e-01
12            	7.394138e-02	4.680502e-02	7.679265e-02	2.587817e-01
13            	5.873267e-02	5.212637e-02	6.127870e-02	1.480699e-01
14            	5.624398e-02	4.323438e-02	4.594940e-02	8.499570e-02
15            	6.226462e-02	2.868554e-02	3.729785e-02	1.497001e-01
16            	7.879633e-02	1.632534e-02	3.077708e-02	1.826635e-01
17            	9.787713e-02	1.214200e-02	2.684330e-02	1.609858e-01
18            	8.112964e-02	1.501882e-02	2.409640e-02	1.121368e-01
19            	7.663021e-02	1.667003e-02	2.003577e-02	6.006534e-02
20            	7.979175e-02	1.417642e-02	1.639576e-02	4.818891e-02
21            	8.880325e-02	9.725098e-03	1.452797e-02	7.141595e-02
22            	9.603059e-02	8.093172e-03	1.376566e-02	7.904948e-02
23            	8.439497e-02	9.788328e-03	1.341583e-02	6.794404e-02
24            	7.834272e-02	1.087139e-02	1.230655e-02	4.756189e-02
25            	7.670183e-02	1.050547e-02	1.077453e-02	3.127570e-02
26            	7.829288e-02	9.206574e-03	9.721121e-03	3.361156e-02
27            	8.197378e-02	7.611170e-03	8.798166e-03	3.958576e-02
28            	8.617261e-02	6.259613e-03	7.805499e-03	3.924476e-02
29            	8.921356e-02	5.441614e-03	6.853926e-03	3.373424e-02
30            	9.003638e-02	5.022871e-03	6.005907e-03	2.682984e-02
31            	8.866315e-02	4.797703e-03	5.466096e-03	2.286813e-02
32            	8.575320e-02	4.840685e-03	5.416113e-03	2.333925e-02
33            	8.230100e-02	5.042673e-03	5.522221e-03	2.403221e-02
34            	7.911109e-02	5.228336e-03	5.533716e-03	2.302664e-02
35            	7.658086e-02	5.290719e-03	5.415099e-03	2.096952e-02
36            	7.479156e-02	5.200347e-03	5.220838e-03	1.923440e-02
37            	7.357813e-02	4.989756e-03	5.001420e-03	1.869401e-02
38            	7.271244e-02	4.721392e-03	4.775297e-03	1.866233e-02
39            	7.193976e-02	4.455585e-03	4.543296e-03	1.829899e-02
40            	7.102892e-02	4.231817e-03	4.323487e-03	1.751788e-02
41            	6.985488e-02	4.065312e-03	4.137774e-03	1.658192e-02
42            	6.839945e-02	3.952688e-03	3.999135e-03	1.579009e-02
43            	6.674216e-02	3.878538e-03	3.899962e-03	1.522522e-02
44            	6.500655e-02	3.825350e-03	3.820956e-03	1.479029e-02
45            	6.327930e-02	3.775172e-03	3.744659e-03	1.435023e-02
46            	6.163537e-02	3.716245e-03	3.663221e-03	1.389627e-02
47            	6.009412e-02	3.643678e-03	3.576405e-03	1.347211e-02
48            	5.866127e-02	3.559167e-03	3.486442e-03	1.308979e-02
49            	5.731303e-02	3.467919e-03	3.394591e-03	1.274638e-02
50            	5.600258e-02	3.377333e-03	3.304085e-03	1.239265e-02
51            	5.471473e-02	3.294077e-03	3.223155e-03	1.204764e-02
52            	5.342330e-02	3.216355e-03	3.141751e-03	1.168706e-02
53            	5.213407e-02	3.147502e-03	3.069563e-03	1.134137e-02
54            	5.084949e-02	3.086532e-03	3.003959e-03	1.102822e-02
55            	4.956982e-02	3.030879e-03	2.943162e-03	1.072008e-02
56            	4.831589e-02	2.978189e-03	2.885035e-03	1.043778e-02
57            	4.709692e-02	2.926386e-03	2.829948e-03	1.016837e-02
58            	4.592998e-02	2.875686e-03	2.779014e-03	9.935547e-03
59            	4.478824e-02	2.824576e-03	2.724690e-03	9.670752e-03
60            	4.368102e-02	2.774197e-03	2.672914e-03	9.427343e-03
61            	4.261865e-02	2.725146e-03	2.623968e-03	9.209760e-03
62            	4.158304e-02	2.677682e-03	2.577587e-03	8.987522e-03
63            	4.058440e-02	2.632727e-03	2.533472e-03	8.787176e-03
64            	3.960242e-02	2.589824e-03	2.490332e-03	8.585821e-03
65            	3.863861e-02	2.549071e-03	2.449219e-03	8.385640e-03
66            	3.771122e-02	2.510414e-03	2.412127e-03	8.221059e-03
67            	3.682400e-02	2.472525e-03	2.374810e-03	8.030563e-03
68            	3.596560e-02	2.436403e-03	2.339540e-03	7.864100e-03
69            	3.511918e-02	2.401412e-03	2.305042e-03	7.699125e-03
70            	3.430054e-02	2.367444e-03	2.271527e-03	7.542632e-03
71            	3.351976e-02	2.334376e-03	2.240187e-03	7.400237e-03
72            	3.277038e-02	2.302277e-03	2.210196e-03	7.261061e-03
73            	3.204322e-02	2.271505e-03	2.180497e-03	7.130211e-03
74            	3.132601e-02	2.241502e-03	2.151388e-03	6.994689e-03
75            	3.063081e-02	2.212946e-03	2.125108e-03	6.868454e-03
76            	2.997279e-02	2.184875e-03	2.098777e-03	6.746706e-03
77            	2.935281e-02	2.157401e-03	2.073160e-03	6.632896e-03
78            	2.873943e-02	2.131485e-03	2.049073e-03	6.524381e-03
79            	2.813101e-02	2.106213e-03	2.024711e-03	6.410495e-03
80            	2.755194e-02	2.081605e-03	2.001837e-03	6.308610e-03
81            	2.699891e-02	2.057810e-03	1.980603e-03	6.213371e-03
82            	2.647492e-02	2.035048e-03	1.960054e-03	6.127072e-03
83            	2.595256e-02	2.012595e-03	1.939253e-03	6.039050e-03
84            	2.543538e-02	1.990570e-03	1.917882e-03	5.944910e-03
85            	2.493947e-02	1.969289e-03	1.898605e-03	5.854452e-03
86            	2.448236e-02	1.948555e-03	1.880340e-03	5.771555e-03
87            	2.404081e-02	1.929009e-03	1.863970e-03	5.702162e-03
88            	2.359602e-02	1.909492e-03	1.845893e-03	5.630242e-03
89            	2.315466e-02	1.890738e-03	1.829020e-03	5.549428e-03
90            	2.273862e-02	1.872151e-03	1.812086e-03	5.475238e-03
91            	2.234941e-02	1.854106e-03	1.795769e-03	5.409390e-03
92            	2.196560e-02	1.836857e-03	1.780176e-03	5.348030e-03
93            	2.158184e-02	1.819918e-03	1.764775e-03	5.283230e-03
94            	2.119972e-02	1.803336e-03	1.749707e-03	5.216544e-03
95            	2.084679e-02	1.787228e-03	1.736503e-03	5.154248e-03
96            	2.052051e-02	1.771519e-03	1.723082e-03	5.102489e-03
97            	2.019162e-02	1.756316e-03	1.709613e-03	5.046822e-03
98            	1.985821e-02	1.741481e-03	1.696094e-03	4.988319e-03
99            	1.953294e-02	1.726896e-03	1.683652e-03	4.934786e-03
100           	1.923059e-02	1.712628e-03	1.671905e-03	4.883372e-03
101           	1.894742e-02	1.698910e-03	1.659703e-03	4.843364e-03
102           	1.865518e-02	1.685360e-03	1.647912e-03	4.797607e-03
103           	1.836491e-02	1.672290e-03	1.636026e-03	4.748342e-03
104           	1.807833e-02	1.659398e-03	1.625586e-03	4.697782e-03
105           	1.782130e-02	1.646698e-03	1.615663e-03	4.654308e-03
106           	1.757485e-02	1.634424e-03	1.604859e-03	4.616804e-03
107           	1.731945e-02	1.622374e-03	1.594452e-03	4.572857e-03
108           	1.706373e-02	1.610703e-03	1.584533e-03	4.533757e-03
109           	1.681771e-02	1.599124e-03	1.575171e-03	4.491372e-03
110           	1.659700e-02	1.587844e-03	1.565869e-03	4.457759e-03
111           	1.637632e-02	1.577072e-03	1.556646e-03	4.429878e-03
112           	1.614808e-02	1.566243e-03	1.547036e-03	4.392285e-03
113           	1.592100e-02	1.555659e-03	1.538001e-03	4.354548e-03
114           	1.570410e-02	1.545231e-03	1.530297e-03	4.315782e-03
115           	1.551151e-02	1.535302e-03	1.522694e-03	4.286820e-03
116           	1.531663e-02	1.525492e-03	1.514282e-03	4.256873e-03
117           	1.511262e-02	1.515706e-03	1.505595e-03	4.225725e-03
118           	1.491271e-02	1.506137e-03	1.497787e-03	4.194271e-03
119           	1.472419e-02	1.496637e-03	1.490371e-03	4.160735e-03
120           	1.455328e-02	1.487713e-03	1.483096e-03	4.143823e-03
121           	1.437402e-02	1.478738e-03	1.475251e-03	4.116540e-03
122           	1.419220e-02	1.469954e-03	1.467461e-03	4.087335e-03
123           	1.401203e-02	1.461296e-03	1.460970e-03	4.059008e-03
124           	1.384779e-02	1.452683e-03	1.454732e-03	4.029874e-03
125           	1.369454e-02	1.444546e-03	1.448150e-03	4.009215e-03
126           	1.353518e-02	1.436367e-03	1.441343e-03	3.985713e-03
127           	1.337116e-02	1.428418e-03	1.434542e-03	3.961393e-03
128           	1.321035e-02	1.420514e-03	1.428636e-03	3.937134e-03
129           	1.306537e-02	1.412815e-03	1.422819e-03	3.917020e-03
130           	1.292545e-02	1.405281e-03	1.416085e-03	3.900094e-03
131           	1.277807e-02	1.397750e-03	1.409474e-03	3.876910e-03
132           	1.263071e-02	1.390555e-03	1.404036e-03	3.858273e-03
133           	1.248483e-02	1.383304e-03	1.398864e-03	3.832357e-03
134           	1.235670e-02	1.376108e-03	1.393169e-03	3.811944e-03
135           	1.222895e-02	1.369268e-03	1.387809e-03	3.797142e-03
136           	1.209558e-02	1.362377e-03	1.381803e-03	3.776371e-03
137           	1.196296e-02	1.355634e-03	1.376570e-03	3.758386e-03
138           	1.183235e-02	1.348922e-03	1.371634e-03	3.738616e-03
139           	1.171855e-02	1.342949e-03	1.367711e-03	3.725915e-03
140           	1.159962e-02	1.336417e-03	1.361873e-03	3.712410e-03
141           	1.147773e-02	1.329810e-03	1.355935e-03	3.697206e-03
142           	1.135759e-02	1.323575e-03	1.351222e-03	3.678270e-03
143           	1.123844e-02	1.317274e-03	1.346437e-03	3.655109e-03
144           	1.113252e-02	1.311294e-03	1.342043e-03	3.643847e-03
145           	1.102634e-02	1.305267e-03	1.336863e-03	3.628801e-03
146           	1.091409e-02	1.299370e-03	1.331914e-03	3.612433e-03
147           	1.080573e-02	1.294081e-03	1.329717e-03	3.620875e-03
148           	1.069824e-02	1.287858e-03	1.323564e-03	3.587996e-03
149           	1.059977e-02	1.282240e-03	1.318640e-03	3.574643e-03
150           	1.050069e-02	1.276781e-03	1.314218e-03	3.563046e-03
151           	1.039534e-02	1.271230e-03	1.309589e-03	3.549312e-03
152           	1.029314e-02	1.265766e-03	1.305671e-03	3.532863e-03
153           	1.019755e-02	1.260325e-03	1.301589e-03	3.516963e-03
154           	1.010844e-02	1.255131e-03	1.297469e-03	3.506246e-03
155           	1.001709e-02	1.249943e-03	1.293075e-03	3.494674e-03
156           	9.921501e-03	1.244902e-03	1.289361e-03	3.483899e-03
157           	9.826235e-03	1.239656e-03	1.285153e-03	3.471152e-03
158           	9.738220e-03	1.234531e-03	1.280796e-03	3.457758e-03
159           	9.653926e-03	1.229738e-03	1.277137e-03	3.453427e-03
160           	9.570227e-03	1.225151e-03	1.273739e-03	3.442689e-03
161           	9.480413e-03	1.220252e-03	1.269665e-03	3.429609e-03
162           	9.392419e-03	1.215141e-03	1.265676e-03	3.417650e-03
163           	9.311815e-03	1.210318e-03	1.261773e-03	3.404762e-03
164           	9.234729e-03	1.205659e-03	1.257812e-03	3.395556e-03
165           	9.154850e-03	1.201041e-03	1.253962e-03	3.386383e-03
166           	9.073378e-03	1.196531e-03	1.250541e-03	3.377503e-03
167           	8.993657e-03	1.192319e-03	1.248017e-03	3.367685e-03
168           	8.918746e-03	1.187839e-03	1.244318e-03	3.360333e-03
169           	8.847891e-03	1.183091e-03	1.239540e-03	3.353785e-03
170           	8.771725e-03	1.178589e-03	1.235568e-03	3.341946e-03
171           	8.695690e-03	1.174293e-03	1.232525e-03	3.334283e-03
172           	8.619941e-03	1.169900e-03	1.229002e-03	3.321296e-03
173           	8.551748e-03	1.165625e-03	1.225451e-03	3.311672e-03
174           	8.486296e-03	1.161476e-03	1.222095e-03	3.306782e-03
175           	8.414611e-03	1.157337e-03	1.218608e-03	3.298486e-03
176           	8.348106e-03	1.154063e-03	1.217860e-03	3.293799e-03
177           	8.276817e-03	1.149683e-03	1.213452e-03	3.283229e-03
178           	8.212095e-03	1.145117e-03	1.208952e-03	3.278880e-03
179           	8.150542e-03	1.140965e-03	1.204931e-03	3.271159e-03
180           	8.082459e-03	1.137007e-03	1.201698e-03	3.263160e-03
181           	8.016899e-03	1.133067e-03	1.198672e-03	3.253768e-03
182           	7.953547e-03	1.129015e-03	1.195234e-03	3.242433e-03
183           	7.894258e-03	1.125241e-03	1.192394e-03	3.240574e-03
184           	7.833920e-03	1.121357e-03	1.188782e-03	3.233649e-03
185           	7.772626e-03	1.117665e-03	1.185849e-03	3.225685e-03
186           	7.709141e-03	1.113883e-03	1.182806e-03	3.219239e-03
187           	7.650736e-03	1.109888e-03	1.179150e-03	3.212788e-03
188           	7.594517e-03	1.106098e-03	1.175606e-03	3.206681e-03
189           	7.538258e-03	1.102414e-03	1.172341e-03	3.201785e-03
190           	7.481102e-03	1.098976e-03	1.169909e-03	3.195262e-03
191           	7.421320e-03	1.095318e-03	1.166860e-03	3.186688e-03
192           	7.366174e-03	1.091464e-03	1.163599e-03	3.181158e-03
193           	7.315126e-03	1.087795e-03	1.159976e-03	3.174304e-03
194           	7.261272e-03	1.084183e-03	1.156510e-03	3.166678e-03
195           	7.206081e-03	1.080758e-03	1.153910e-03	3.163862e-03
196           	7.150853e-03	1.077218e-03	1.150829e-03	3.155995e-03
197           	7.100515e-03	1.073549e-03	1.147305e-03	3.149343e-03
198           	7.053311e-03	1.070143e-03	1.144351e-03	3.147794e-03
199           	7.002043e-03	1.066710e-03	1.141202e-03	3.142434e-03
200           	6.949925e-03	1.063395e-03	1.138616e-03	3.135939e-03
201           	6.897934e-03	1.059952e-03	1.135671e-03	3.128449e-03
202           	6.850885e-03	1.056337e-03	1.132203e-03	3.122617e-03
203           	6.806655e-03	1.052958e-03	1.128906e-03	3.118386e-03
204           	6.757494e-03	1.049657e-03	1.126003e-03	3.114106e-03
205           	6.709583e-03	1.046468e-03	1.123347e-03	3.109396e-03
206           	6.660999e-03	1.043117e-03	1.120298e-03	3.101477e-03
207           	6.618163e-03	1.039744e-03	1.117302e-03	3.102136e-03
208           	6.574746e-03	1.036398e-03	1.113712e-03	3.096490e-03
209           	6.527566e-03	1.033126e-03	1.110596e-03	3.089024e-03
210           	6.484063e-03	1.031208e-03	1.111764e-03	3.089181e-03
211           	6.438014e-03	1.027444e-03	1.106863e-03	3.080442e-03
212           	6.397847e-03	1.023588e-03	1.102698e-03	3.077939e-03
213           	6.357752e-03	1.020322e-03	1.099284e-03	3.073222e-03
214           	6.313106e-03	1.017199e-03	1.096138e-03	3.066819e-03
215           	6.269911e-03	1.014054e-03	1.093348e-03	3.062597e-03
216           	6.228671e-03	1.010794e-03	1.090353e-03	3.059186e-03
217           	6.189940e-03	1.007670e-03	1.087020e-03	3.054291e-03
218           	6.153553e-03	1.007152e-03	1.091571e-03	3.058380e-03
219           	6.114083e-03	1.007691e-03	1.088474e-03	3.147788e-03
220           	6.071436e-03	9.989314e-04	1.079943e-03	3.056368e-03
221           	6.035027e-03	9.955864e-04	1.076376e-03	3.039211e-03
222           	5.999514e-03	9.923723e-04	1.073236e-03	3.035869e-03
223           	5.959552e-03	9.894411e-04	1.069854e-03	3.032242e-03
224           	5.918877e-03	9.863505e-04	1.066929e-03	3.027254e-03
225           	5.880275e-03	9.832474e-04	1.063865e-03	3.022779e-03
226           	5.843691e-03	9.802627e-04	1.060881e-03	3.017757e-03
227           	5.810021e-03	9.773119e-04	1.057981e-03	3.016590e-03
228           	5.771188e-03	9.743041e-04	1.054935e-03	3.013184e-03
229           	5.733527e-03	9.713410e-04	1.051917e-03	3.007841e-03
230           	5.698680e-03	9.685127e-04	1.049629e-03	3.001861e-03
231           	5.665008e-03	9.656639e-04	1.047077e-03	3.002077e-03
232           	5.632311e-03	9.625601e-04	1.043590e-03	2.998781e-03
233           	5.596851e-03	9.596039e-04	1.040326e-03	2.992393e-03
234           	5.560266e-03	9.567843e-04	1.037770e-03	2.990066e-03
235           	5.527174e-03	9.538389e-04	1.034776e-03	2.986295e-03
236           	5.495261e-03	9.510029e-04	1.031881e-03	2.982647e-03
237           	5.463933e-03	9.481961e-04	1.029054e-03	2.981415e-03
238           	5.430143e-03	9.453444e-04	1.026005e-03	2.977185e-03
239           	5.395613e-03	9.425494e-04	1.023377e-03	2.973566e-03
240           	5.365425e-03	9.400040e-04	1.021763e-03	2.972314e-03
241           	5.335411e-03	9.371405e-04	1.018380e-03	2.968160e-03
242           	5.304616e-03	9.341168e-04	1.014857e-03	2.964247e-03
243           	5.272671e-03	9.313905e-04	1.012224e-03	2.963299e-03
244           	5.240509e-03	9.286417e-04	1.009444e-03	2.958831e-03
245           	5.211681e-03	9.257923e-04	1.006380e-03	2.954246e-03
246           	5.183759e-03	9.231711e-04	1.003956e-03	2.954493e-03
247           	5.155020e-03	9.204873e-04	1.001050e-03	2.952287e-03
248           	5.123816e-03	9.177007e-04	9.980351e-04	2.947848e-03
249           	5.093591e-03	9.150097e-04	9.955636e-04	2.945014e-03
250           	5.068328e-03	9.128252e-04	9.943077e-04	2.942740e-03
251           	5.039945e-03	9.100345e-04	9.909906e-04	2.941087e-03
252           	5.011199e-03	9.070698e-04	9.876106e-04	2.940260e-03
253           	4.982699e-03	9.043431e-04	9.845317e-04	2.935302e-03
254           	4.955382e-03	9.017188e-04	9.819256e-04	2.930906e-03
255           	4.929926e-03	8.991452e-04	9.794788e-04	2.932811e-03
256           	4.903804e-03	8.965077e-04	9.764548e-04	2.929491e-03
257           	4.878196e-03	8.944517e-04	9.752242e-04	2.927247e-03
258           	4.849924e-03	8.917335e-04	9.722346e-04	2.925000e-03
259           	4.823913e-03	8.887397e-04	9.687462e-04	2.922817e-03
260           	4.799038e-03	8.861065e-04	9.658065e-04	2.917995e-03
261           	4.774972e-03	8.837586e-04	9.636820e-04	2.917610e-03
262           	4.748605e-03	8.812521e-04	9.608636e-04	2.915064e-03
263           	4.722485e-03	8.785286e-04	9.578964e-04	2.913260e-03
264           	4.698528e-03	8.760058e-04	9.555051e-04	2.912708e-03
265           	4.677430e-03	8.742626e-04	9.549030e-04	2.911992e-03
266           	4.653534e-03	8.714919e-04	9.512584e-04	2.908140e-03
267           	4.628301e-03	8.685995e-04	9.478554e-04	2.909895e-03
268           	4.603201e-03	8.660428e-04	9.450373e-04	2.904212e-03
269           	4.581125e-03	8.635224e-04	9.422776e-04	2.899705e-03
270           	4.561628e-03	8.617730e-04	9.418775e-04	2.903047e-03
271           	4.535864e-03	8.592101e-04	9.386011e-04	2.900310e-03
272           	4.514681e-03	8.564242e-04	9.355221e-04	2.904618e-03
273           	4.490021e-03	8.538704e-04	9.327668e-04	2.899719e-03
274           	4.468487e-03	8.514282e-04	9.298460e-04	2.894752e-03
275           	4.447849e-03	8.490593e-04	9.272651e-04	2.891352e-03
276           	4.426474e-03	8.466252e-04	9.247620e-04	2.892667e-03
277           	4.405115e-03	8.442584e-04	9.222141e-04	2.890306e-03
278           	4.384778e-03	8.419072e-04	9.199411e-04	2.887317e-03
279           	4.369351e-03	8.417376e-04	9.239450e-04	2.896755e-03
280           	4.345813e-03	8.383297e-04	9.177115e-04	2.890403e-03
281           	4.324085e-03	8.350882e-04	9.133945e-04	2.889423e-03
282           	4.302145e-03	8.326623e-04	9.106882e-04	2.885679e-03
283           	4.280382e-03	8.302752e-04	9.079227e-04	2.881733e-03
284           	4.261427e-03	8.279962e-04	9.056192e-04	2.880983e-03
285           	4.242152e-03	8.256302e-04	9.030835e-04	2.881214e-03
286           	4.222582e-03	8.233578e-04	9.005034e-04	2.878782e-03
287           	4.201681e-03	8.212358e-04	8.986974e-04	2.877077e-03
288           	4.183709e-03	8.190099e-04	8.967855e-04	2.879867e-03
289           	4.163513e-03	8.165410e-04	8.937377e-04	2.876682e-03
290           	4.144116e-03	8.142150e-04	8.909292e-04	2.872374e-03
291           	4.124151e-03	8.120277e-04	8.888666e-04	2.872658e-03
292           	4.105878e-03	8.099564e-04	8.870579e-04	2.872993e-03
293           	4.086190e-03	8.077503e-04	8.847330e-04	2.870319e-03
294           	4.069100e-03	8.054084e-04	8.823130e-04	2.871897e-03
295           	4.049633e-03	8.031566e-04	8.796881e-04	2.868804e-03
296           	4.031094e-03	8.009925e-04	8.774890e-04	2.867873e-03
297           	4.012883e-03	7.991022e-04	8.762861e-04	2.868728e-03
298           	3.994402e-03	7.968809e-04	8.737232e-04	2.865316e-03
299           	3.976975e-03	7.944233e-04	8.707634e-04	2.863813e-03
300           	3.959174e-03	7.922623e-04	8.686328e-04	2.864707e-03
301           	3.941370e-03	7.901183e-04	8.663506e-04	2.862724e-03
302           	3.924520e-03	7.879896e-04	8.641836e-04	2.860534e-03
303           	3.907165e-03	7.860012e-04	8.625026e-04	2.862437e-03
304           	3.890852e-03	7.837319e-04	8.598917e-04	2.861799e-03
305           	3.872827e-03	7.815681e-04	8.574525e-04	2.858592e-03
306           	3.855509e-03	7.795171e-04	8.555799e-04	2.858749e-03
307           	3.839085e-03	7.774600e-04	8.536192e-04	2.856887e-03
308           	3.823206e-03	7.754344e-04	8.516280e-04	2.856050e-03
309           	3.807465e-03	7.732591e-04	8.493980e-04	2.857619e-03
310           	3.791456e-03	7.711624e-04	8.470571e-04	2.855221e-03
311           	3.774218e-03	7.691244e-04	8.450305e-04	2.853283e-03
312           	3.760161e-03	7.672650e-04	8.437779e-04	2.857236e-03
313           	3.743846e-03	7.652471e-04	8.415184e-04	2.854530e-03
314           	3.728308e-03	7.629681e-04	8.388026e-04	2.852403e-03
315           	3.711676e-03	7.609483e-04	8.368777e-04	2.852340e-03
316           	3.696132e-03	7.589861e-04	8.350061e-04	2.852023e-03
317           	3.682710e-03	7.572565e-04	8.338271e-04	2.851346e-03
318           	3.668122e-03	7.553287e-04	8.319825e-04	2.852020e-03
319           	3.652428e-03	7.530712e-04	8.292603e-04	2.851396e-03
320           	3.638040e-03	7.510050e-04	8.271254e-04	2.849769e-03
321           	3.622607e-03	7.491100e-04	8.254731e-04	2.849863e-03
322           	3.608870e-03	7.471604e-04	8.233608e-04	2.847441e-03
323           	3.594131e-03	7.451048e-04	8.211330e-04	2.845735e-03
324           	3.579442e-03	7.432223e-04	8.194565e-04	2.847642e-03
325           	3.563893e-03	7.413880e-04	8.177355e-04	2.846729e-03
326           	3.550310e-03	7.394482e-04	8.157874e-04	2.844046e-03
327           	3.536150e-03	7.375099e-04	8.140250e-04	2.846591e-03
328           	3.522858e-03	7.355854e-04	8.120199e-04	2.845631e-03
329           	3.508690e-03	7.337697e-04	8.103447e-04	2.843538e-03
330           	3.494584e-03	7.319164e-04	8.086162e-04	2.843712e-03
331           	3.480845e-03	7.298762e-04	8.064240e-04	2.841972e-03
332           	3.468113e-03	7.280276e-04	8.046429e-04	2.841635e-03
333           	3.456163e-03	7.268098e-04	8.047285e-04	2.844846e-03
334           	3.442066e-03	7.248287e-04	8.022352e-04	2.842789e-03
335           	3.427374e-03	7.226064e-04	7.996449e-04	2.841889e-03
336           	3.415541e-03	7.207675e-04	7.981338e-04	2.843718e-03
337           	3.402996e-03	7.191648e-04	7.967258e-04	2.841668e-03
338           	3.389719e-03	7.172974e-04	7.945997e-04	2.838296e-03
339           	3.376462e-03	7.153088e-04	7.926168e-04	2.839210e-03
340           	3.363363e-03	7.134907e-04	7.907676e-04	2.838088e-03
341           	3.351370e-03	7.121370e-04	7.903090e-04	2.837570e-03
342           	3.338936e-03	7.103757e-04	7.885901e-04	2.838909e-03
343           	3.325507e-03	7.082698e-04	7.860138e-04	2.837797e-03
344           	3.313006e-03	7.064316e-04	7.841499e-04	2.835676e-03
345           	3.301478e-03	7.054257e-04	7.847179e-04	2.838351e-03
346           	3.287984e-03	7.034620e-04	7.822114e-04	2.835425e-03
347           	3.276078e-03	7.012764e-04	7.795178e-04	2.834253e-03
348           	3.264199e-03	6.995391e-04	7.779235e-04	2.834547e-03
349           	3.251388e-03	6.980161e-04	7.767077e-04	2.833187e-03
350           	3.239775e-03	6.963265e-04	7.750221e-04	2.830846e-03
351           	3.228321e-03	6.945174e-04	7.733520e-04	2.833424e-03
352           	3.217867e-03	6.927872e-04	7.715298e-04	2.831877e-03
353           	3.206759e-03	6.913616e-04	7.706367e-04	2.830228e-03
354           	3.195667e-03	6.897030e-04	7.691312e-04	2.830635e-03
355           	3.184328e-03	6.877843e-04	7.669431e-04	2.829046e-03
356           	3.173688e-03	6.861262e-04	7.653270e-04	2.827541e-03
357           	3.163653e-03	6.847618e-04	7.646979e-04	2.829336e-03
358           	3.151982e-03	6.831264e-04	7.629489e-04	2.827436e-03
359           	3.139728e-03	6.813024e-04	7.609259e-04	2.826019e-03
360           	3.129325e-03	6.797286e-04	7.597532e-04	2.828255e-03
361           	3.119485e-03	6.783254e-04	7.586915e-04	2.826430e-03
362           	3.108291e-03	6.766803e-04	7.568901e-04	2.823380e-03
363           	3.096877e-03	6.749134e-04	7.551708e-04	2.824400e-03
364           	3.086501e-03	6.733203e-04	7.536601e-04	2.823364e-03
365           	3.076022e-03	6.718238e-04	7.524173e-04	2.821291e-03
366           	3.066271e-03	6.703597e-04	7.512815e-04	2.822710e-03
367           	3.054761e-03	6.686773e-04	7.494262e-04	2.821279e-03
368           	3.044337e-03	6.671046e-04	7.479301e-04	2.819814e-03
369           	3.033998e-03	6.656830e-04	7.469818e-04	2.820975e-03
370           	3.023842e-03	6.641288e-04	7.453655e-04	2.818309e-03
371           	3.013612e-03	6.624778e-04	7.436375e-04	2.816599e-03
372           	3.003651e-03	6.610294e-04	7.425662e-04	2.818615e-03
373           	2.993134e-03	6.595848e-04	7.412849e-04	2.817153e-03
374           	2.992564e-03	6.635480e-04	7.553346e-04	2.836947e-03
375           	2.977274e-03	6.584259e-04	7.431765e-04	2.824044e-03
376           	2.968371e-03	6.555831e-04	7.391744e-04	2.827146e-03
377           	2.959017e-03	6.538693e-04	7.368830e-04	2.818410e-03
378           	2.948768e-03	6.522791e-04	7.351440e-04	2.816298e-03
379           	2.938540e-03	6.507896e-04	7.336772e-04	2.813584e-03
380           	2.929588e-03	6.492719e-04	7.320847e-04	2.812885e-03
381           	2.919426e-03	6.479139e-04	7.310491e-04	2.813866e-03
382           	2.909986e-03	6.466625e-04	7.302621e-04	2.813085e-03
383           	2.900311e-03	6.452043e-04	7.287865e-04	2.810594e-03
384           	2.891780e-03	6.436396e-04	7.274186e-04	2.814211e-03
385           	2.881776e-03	6.421486e-04	7.257647e-04	2.810074e-03
386           	2.872966e-03	6.406992e-04	7.242803e-04	2.806537e-03
387           	2.864501e-03	6.394646e-04	7.236136e-04	2.807522e-03
388           	2.854678e-03	6.381206e-04	7.224000e-04	2.807251e-03
389           	2.845569e-03	6.365095e-04	7.207380e-04	2.805286e-03
390           	2.837624e-03	6.351530e-04	7.196042e-04	2.805730e-03
391           	2.828351e-03	6.338701e-04	7.184648e-04	2.803969e-03
392           	2.819402e-03	6.324923e-04	7.172391e-04	2.802394e-03
393           	2.809175e-03	6.310445e-04	7.158650e-04	2.803559e-03
394           	2.800619e-03	6.296086e-04	7.143387e-04	2.799909e-03
395           	2.791994e-03	6.282717e-04	7.131354e-04	2.797194e-03
396           	2.786805e-03	6.276108e-04	7.140546e-04	2.801831e-03
397           	2.776527e-03	6.261307e-04	7.122310e-04	2.799085e-03
398           	2.769732e-03	6.243494e-04	7.101084e-04	2.798103e-03
399           	2.761430e-03	6.230295e-04	7.090719e-04	2.798159e-03
400           	2.753602e-03	6.216834e-04	7.076367e-04	2.795954e-03
401           	2.744997e-03	6.203931e-04	7.063612e-04	2.792639e-03
402           	2.736568e-03	6.190076e-04	7.050549e-04	2.792983e-03
403           	2.727903e-03	6.176651e-04	7.037115e-04	2.790313e-03
404           	2.719782e-03	6.164245e-04	7.027243e-04	2.788987e-03
405           	2.716039e-03	6.201659e-04	7.243532e-04	3.056344e-03
406           	2.707129e-03	6.140000e-04	7.014439e-04	2.807056e-03
407           	2.697580e-03	6.126209e-04	6.995852e-04	2.791230e-03
408           	2.690358e-03	6.116000e-04	6.993124e-04	2.789946e-03
409           	2.682310e-03	6.103070e-04	6.977934e-04	2.785765e-03
410           	2.674476e-03	6.087707e-04	6.960631e-04	2.784379e-03
411           	2.665956e-03	6.075130e-04	6.949235e-04	2.782581e-03
412           	2.657963e-03	6.062721e-04	6.937648e-04	2.779923e-03
413           	2.651717e-03	6.052780e-04	6.940604e-04	2.795205e-03
414           	2.643437e-03	6.039174e-04	6.923138e-04	2.786045e-03
415           	2.636485e-03	6.030893e-04	6.920377e-04	2.781683e-03
416           	2.626820e-03	6.017068e-04	6.902812e-04	2.776142e-03
417           	2.620135e-03	6.002773e-04	6.890672e-04	2.781517e-03
418           	2.611990e-03	5.989305e-04	6.874799e-04	2.775534e-03
419           	2.610241e-03	5.998423e-04	6.923809e-04	2.778679e-03
420           	2.600451e-03	5.977511e-04	6.877808e-04	2.775213e-03
421           	2.592386e-03	5.955707e-04	6.851379e-04	2.776413e-03
422           	2.587145e-03	5.943508e-04	6.836783e-04	2.770325e-03
423           	2.580182e-03	5.931855e-04	6.827552e-04	2.770720e-03
424           	2.573043e-03	5.918851e-04	6.811881e-04	2.767812e-03
425           	2.565467e-03	5.907485e-04	6.800923e-04	2.765402e-03
426           	2.559690e-03	5.896258e-04	6.793340e-04	2.765429e-03
427           	2.553271e-03	5.884117e-04	6.779576e-04	2.762315e-03
428           	2.546675e-03	5.872874e-04	6.769057e-04	2.759892e-03
429           	2.542975e-03	5.871256e-04	6.788281e-04	2.765983e-03
430           	2.534857e-03	5.856738e-04	6.766841e-04	2.762048e-03
431           	2.526864e-03	5.840274e-04	6.743143e-04	2.759935e-03
432           	2.519931e-03	5.828988e-04	6.734059e-04	2.758602e-03
433           	2.512168e-03	5.817408e-04	6.719790e-04	2.755098e-03
434           	2.508822e-03	5.811733e-04	6.727990e-04	2.771917e-03
435           	2.500342e-03	5.799895e-04	6.716655e-04	2.760286e-03
436           	2.493006e-03	5.785914e-04	6.692851e-04	2.753710e-03
437           	2.486354e-03	5.773401e-04	6.677584e-04	2.747926e-03
438           	2.480861e-03	5.764158e-04	6.673359e-04	2.748692e-03
439           	2.474768e-03	5.754001e-04	6.662559e-04	2.746717e-03
440           	2.468625e-03	5.741612e-04	6.648103e-04	2.743503e-03
441           	2.462616e-03	5.731600e-04	6.640483e-04	2.743228e-03
442           	2.455848e-03	5.721690e-04	6.631238e-04	2.742057e-03
443           	2.449665e-03	5.711339e-04	6.619453e-04	2.738248e-03
444           	2.443378e-03	5.700388e-04	6.608730e-04	2.737935e-03
445           	2.436683e-03	5.690197e-04	6.597808e-04	2.734665e-03
446           	2.431367e-03	5.681253e-04	6.591985e-04	2.733842e-03