# Residuals   
# Time        	p             	Ux            	Uy            	Uz            
0             	N/A	N/A
1             	1.000000e+00	1.000000e+00	1.000000e+00	1.000000e+00
2             	3.477234e-02	5.395553e-01	4.244371e-01	4.025610e-01
3             	5.400435e-02	2.169487e-01	2.020628e-01	1.650098e-01
4             	7.470751e-02	1.073541e-01	1.470886e-01	4.939459e-01
5             	1.914091e-01	4.969946e-02	1.315259e-01	5.237527e-01
6             	1.497047e-01	6.435127e-02	1.398819e-01	3.944611e-01
7             	8.465766e-02	1.131947e-01	1.513761e-01	2.562758e-01
8             	7.023953e-02	1.439941e-01	1.498781e-01	1.560119e-01
9             	7.412302e-02	1.353657e-01	1.433075e-01	2.364847e-01
10            	9.605560e-02	8.586621e-02	1.244636e-01	3.655588e-01
11            	1.597633e-01	4.847630e-02	1.051981e-01	3.610332e-01
12            	9.099693e-02	5.936330e-02	9.263461e-02	2.783093e-01
13            	6.763913e-02	6.901145e-02	7.512055e-02	1.766523e-01
14            	6.195828e-02	6.004238e-02	5.595518e-02	1.039321e-01
15            	6.571861e-02	4.106462e-02	4.397709e-02	1.550371e-01
16            	7.965664e-02	2.365253e-02	3.665293e-02	2.026079e-01
17            	1.027476e-01	1.699243e-02	3.198170e-02	1.884709e-01
18            	8.724389e-02	2.064780e-02	2.876300e-02	1.394911e-01
19            	7.887719e-02	2.370039e-02	2.435227e-02	8.326340e-02
20            	7.876752e-02	2.087532e-02	1.961176e-02	5.971790e-02
21            	8.461280e-02	1.453754e-02	1.737969e-02	8.181301e-02
22            	9.179481e-02	1.173315e-02	1.719902e-02	9.376587e-02
23            	8.053273e-02	1.317873e-02	1.706798e-02	8.444923e-02
24            	7.408390e-02	1.453772e-02	1.572873e-02	6.283938e-02
25            	7.127998e-02	1.426005e-02	1.375357e-02	4.328795e-02
26            	7.107816e-02	1.269579e-02	1.233045e-02	4.113122e-02
27            	7.258452e-02	1.083103e-02	1.143858e-02	4.718932e-02
28            	7.476255e-02	9.357834e-03	1.052017e-02	4.803872e-02
29            	7.642448e-02	8.487562e-03	9.517496e-03	4.270557e-02
30            	7.675161e-02	8.020779e-03	8.590221e-03	3.522109e-02
31            	7.558651e-02	7.715869e-03	7.985994e-03	3.037801e-02
32            	7.337438e-02	7.566621e-03	7.792977e-03	2.994914e-02
33            	7.074494e-02	7.560315e-03	7.766332e-03	3.054063e-02
34            	6.821263e-02	7.601092e-03	7.690676e-03	2.971942e-02
35            	6.606061e-02	7.581816e-03	7.507888e-03	2.766243e-02
36            	6.436447e-02	7.446357e-03	7.265190e-03	2.567359e-02
37            	6.306535e-02	7.209763e-03	7.019882e-03	2.465313e-02
38            	6.204487e-02	6.922642e-03	6.783542e-03	2.427719e-02
39            	6.115341e-02	6.639447e-03	6.549561e-03	2.383672e-02
40            	6.024275e-02	6.392417e-03	6.321007e-03	2.306769e-02
41            	5.921291e-02	6.188826e-03	6.111408e-03	2.213442e-02
42            	5.803145e-02	6.023014e-03	5.931132e-03	2.128486e-02
43            	5.672463e-02	5.885919e-03	5.782225e-03	2.062960e-02
44            	5.534924e-02	5.767796e-03	5.653831e-03	2.008842e-02
45            	5.396329e-02	5.658631e-03	5.534413e-03	1.956025e-02
46            	5.260946e-02	5.550270e-03	5.417377e-03	1.902586e-02
47            	5.131301e-02	5.437853e-03	5.301153e-03	1.851317e-02
48            	5.007990e-02	5.320786e-03	5.185086e-03	1.803945e-02
49            	4.890452e-02	5.201711e-03	5.071797e-03	1.761200e-02
50            	4.777478e-02	5.084505e-03	4.961456e-03	1.720493e-02
51            	4.667134e-02	4.972155e-03	4.855144e-03	1.680131e-02
52            	4.557859e-02	4.866468e-03	4.754245e-03	1.640623e-02
53            	4.449321e-02	4.767573e-03	4.658735e-03	1.602066e-02
54            	4.341531e-02	4.674665e-03	4.567662e-03	1.564375e-02
55            	4.234940e-02	4.586939e-03	4.482316e-03	1.529258e-02
56            	4.130304e-02	4.503202e-03	4.400967e-03	1.496188e-02
57            	4.028288e-02	4.422416e-03	4.323044e-03	1.464782e-02
58            	3.929241e-02	4.344052e-03	4.248310e-03	1.435291e-02
59            	3.833005e-02	4.267888e-03	4.176274e-03	1.407033e-02
60            	3.739892e-02	4.193594e-03	4.105635e-03	1.379092e-02
61            	3.649567e-02	4.121580e-03	4.038214e-03	1.352849e-02
62            	3.561886e-02	4.052040e-03	3.973064e-03	1.327855e-02
63            	3.476677e-02	3.984993e-03	3.910247e-03	1.303749e-02
64            	3.393936e-02	3.920444e-03	3.849960e-03	1.280968e-02
65            	3.313325e-02	3.858306e-03	3.791820e-03	1.258971e-02
66            	3.235027e-02	3.798082e-03	3.734699e-03	1.236833e-02
67            	3.159042e-02	3.739868e-03	3.680188e-03	1.216207e-02
68            	3.085229e-02	3.683536e-03	3.627480e-03	1.196703e-02
69            	3.013661e-02	3.628936e-03	3.576471e-03	1.178016e-02
70            	2.944477e-02	3.576069e-03	3.527415e-03	1.160493e-02
71            	2.877283e-02	3.524863e-03	3.479943e-03	1.143457e-02
72            	2.812164e-02	3.474921e-03	3.432887e-03	1.125969e-02
73            	2.749095e-02	3.426473e-03	3.388040e-03	1.109727e-02
74            	2.687937e-02	3.379463e-03	3.344522e-03	1.094339e-02
75            	2.628753e-02	3.333762e-03	3.302389e-03	1.079544e-02
76            	2.571468e-02	3.289434e-03	3.261856e-03	1.065673e-02
77            	2.515771e-02	3.246445e-03	3.222596e-03	1.052136e-02
78            	2.461911e-02	3.204400e-03	3.183415e-03	1.038021e-02
79            	2.409684e-02	3.163474e-03	3.146089e-03	1.024991e-02
80            	2.359049e-02	3.123710e-03	3.109808e-03	1.012699e-02
81            	2.310042e-02	3.084954e-03	3.074584e-03	1.000887e-02
82            	2.262635e-02	3.047265e-03	3.040763e-03	9.899474e-03
83            	2.216438e-02	3.010576e-03	3.007999e-03	9.791159e-03
84            	2.171741e-02	2.974536e-03	2.975067e-03	9.675421e-03
85            	2.128395e-02	2.939385e-03	2.943811e-03	9.569404e-03
86            	2.086383e-02	2.905199e-03	2.913372e-03	9.469610e-03
87            	2.045756e-02	2.871825e-03	2.883710e-03	9.372889e-03
88            	2.006482e-02	2.839293e-03	2.855086e-03	9.283496e-03
89            	1.968214e-02	2.807601e-03	2.827261e-03	9.194573e-03
90            	1.931114e-02	2.776344e-03	2.799078e-03	9.096420e-03
91            	1.895103e-02	2.745783e-03	2.772384e-03	9.006996e-03
92            	1.860089e-02	2.715978e-03	2.746258e-03	8.923356e-03
93            	1.826209e-02	2.686822e-03	2.720780e-03	8.842559e-03
94            	1.793423e-02	2.658361e-03	2.696200e-03	8.768472e-03
95            	1.761386e-02	2.630570e-03	2.672300e-03	8.694314e-03
96            	1.730310e-02	2.603107e-03	2.647805e-03	8.610902e-03
97            	1.700134e-02	2.576270e-03	2.624665e-03	8.535820e-03
98            	1.670793e-02	2.550091e-03	2.602008e-03	8.465395e-03
99            	1.642379e-02	2.524454e-03	2.579863e-03	8.397144e-03
100           	1.614901e-02	2.499420e-03	2.558528e-03	8.334882e-03
101           	1.587976e-02	2.474950e-03	2.537721e-03	8.272040e-03
102           	1.561832e-02	2.450675e-03	2.516182e-03	8.199530e-03
103           	1.536398e-02	2.426939e-03	2.495794e-03	8.134877e-03
104           	1.511646e-02	2.403764e-03	2.475780e-03	8.074614e-03
105           	1.487655e-02	2.381052e-03	2.456204e-03	8.015954e-03
106           	1.464428e-02	2.358885e-03	2.437346e-03	7.963044e-03
107           	1.441633e-02	2.337218e-03	2.418890e-03	7.909163e-03
108           	1.419489e-02	2.315674e-03	2.399679e-03	7.845187e-03
109           	1.397921e-02	2.294588e-03	2.381590e-03	7.789163e-03
110           	1.376910e-02	2.274017e-03	2.363804e-03	7.737057e-03
111           	1.356550e-02	2.253838e-03	2.346377e-03	7.686211e-03
112           	1.336838e-02	2.234148e-03	2.329681e-03	7.640940e-03
113           	1.317415e-02	2.214898e-03	2.313400e-03	7.594652e-03
114           	1.298526e-02	2.195728e-03	2.296229e-03	7.537630e-03
115           	1.280122e-02	2.176937e-03	2.280089e-03	7.488148e-03
116           	1.262188e-02	2.158585e-03	2.264216e-03	7.442629e-03
117           	1.244809e-02	2.140556e-03	2.248648e-03	7.398342e-03
118           	1.227962e-02	2.122966e-03	2.233708e-03	7.359130e-03
119           	1.211317e-02	2.105749e-03	2.219102e-03	7.318623e-03
120           	1.195107e-02	2.088535e-03	2.203641e-03	7.267388e-03
121           	1.179262e-02	2.071668e-03	2.189219e-03	7.223299e-03
122           	1.163765e-02	2.055208e-03	2.175047e-03	7.182823e-03
123           	1.148741e-02	2.038997e-03	2.161151e-03	7.143666e-03
124           	1.134204e-02	2.023167e-03	2.147840e-03	7.109410e-03
125           	1.119790e-02	2.007663e-03	2.134840e-03	7.073539e-03
126           	1.105743e-02	1.992114e-03	2.120904e-03	7.026792e-03
127           	1.092026e-02	1.976859e-03	2.107954e-03	6.986814e-03
128           	1.078595e-02	1.961948e-03	2.095181e-03	6.950191e-03
129           	1.065573e-02	1.947281e-03	2.082618e-03	6.914423e-03
130           	1.052956e-02	1.932955e-03	2.070586e-03	6.883204e-03
131           	1.040417e-02	1.918929e-03	2.058815e-03	6.850407e-03
132           	1.028189e-02	1.904832e-03	2.046056e-03	6.806782e-03
133           	1.016206e-02	1.890981e-03	2.034253e-03	6.769965e-03
134           	1.004469e-02	1.877465e-03	2.022572e-03	6.736324e-03
135           	9.930890e-03	1.864148e-03	2.011045e-03	6.703640e-03
136           	9.820755e-03	1.851123e-03	1.999986e-03	6.675913e-03
137           	9.710860e-03	1.838382e-03	1.989176e-03	6.646701e-03
138           	9.603549e-03	1.825524e-03	1.977371e-03	6.606464e-03
139           	9.498262e-03	1.812852e-03	1.966490e-03	6.572964e-03
140           	9.395079e-03	1.800448e-03	1.955724e-03	6.542637e-03
141           	9.295049e-03	1.788212e-03	1.945121e-03	6.513161e-03
142           	9.198411e-03	1.776238e-03	1.934958e-03	6.488245e-03
143           	9.101890e-03	1.764516e-03	1.925008e-03	6.461844e-03
144           	9.007672e-03	1.752675e-03	1.914023e-03	6.424509e-03
145           	8.915096e-03	1.741040e-03	1.903917e-03	6.393943e-03
146           	8.824033e-03	1.729664e-03	1.893882e-03	6.366347e-03
147           	8.735684e-03	1.718438e-03	1.883959e-03	6.339399e-03
148           	8.650360e-03	1.707466e-03	1.874462e-03	6.316932e-03
149           	8.564689e-03	1.696709e-03	1.865163e-03	6.292838e-03
150           	8.480948e-03	1.685791e-03	1.854799e-03	6.257657e-03
151           	8.398701e-03	1.675064e-03	1.845310e-03	6.228974e-03
152           	8.317760e-03	1.664582e-03	1.835870e-03	6.203258e-03
153           	8.239514e-03	1.654227e-03	1.826509e-03	6.178312e-03
154           	8.163745e-03	1.644109e-03	1.817561e-03	6.157863e-03
155           	8.087247e-03	1.634184e-03	1.808790e-03	6.135714e-03
156           	8.012238e-03	1.624095e-03	1.798930e-03	6.102490e-03
157           	7.938424e-03	1.614182e-03	1.789919e-03	6.075993e-03
158           	7.865757e-03	1.604493e-03	1.780966e-03	6.052517e-03
159           	7.795343e-03	1.594917e-03	1.772101e-03	6.029921e-03
160           	7.727465e-03	1.585569e-03	1.763643e-03	6.011922e-03
161           	7.658977e-03	1.576412e-03	1.755332e-03	5.992106e-03
162           	7.592126e-03	1.567069e-03	1.745929e-03	5.961481e-03
163           	7.526324e-03	1.557887e-03	1.737379e-03	5.937644e-03
164           	7.461559e-03	1.548917e-03	1.728861e-03	5.917011e-03
165           	7.398997e-03	1.540043e-03	1.720444e-03	5.897110e-03
166           	7.338754e-03	1.531383e-03	1.712403e-03	5.881860e-03
167           	7.277344e-03	1.522904e-03	1.704509e-03	5.865104e-03
168           	7.217121e-03	1.514225e-03	1.695491e-03	5.837487e-03
169           	7.157593e-03	1.505697e-03	1.687285e-03	5.816707e-03
170           	7.098819e-03	1.497379e-03	1.679106e-03	5.798937e-03
171           	7.042103e-03	1.489152e-03	1.671000e-03	5.781820e-03
172           	6.987549e-03	1.481132e-03	1.663260e-03	5.769421e-03
173           	6.932037e-03	1.473280e-03	1.655647e-03	5.755197e-03
174           	6.877671e-03	1.465223e-03	1.646935e-03	5.730251e-03
175           	6.823930e-03	1.457305e-03	1.639036e-03	5.711880e-03
176           	6.770833e-03	1.449582e-03	1.631153e-03	5.696572e-03
177           	6.719491e-03	1.441951e-03	1.623323e-03	5.681973e-03
178           	6.670001e-03	1.434526e-03	1.615884e-03	5.671759e-03
179           	6.619192e-03	1.427257e-03	1.608582e-03	5.660054e-03
180           	6.569285e-03	1.419782e-03	1.600147e-03	5.637688e-03
181           	6.519676e-03	1.412429e-03	1.592547e-03	5.622319e-03
182           	6.470628e-03	1.405259e-03	1.584962e-03	5.609912e-03
183           	6.423482e-03	1.398173e-03	1.577441e-03	5.598006e-03
184           	6.378230e-03	1.391284e-03	1.570305e-03	5.591047e-03
185           	6.331847e-03	1.384539e-03	1.563305e-03	5.582248e-03
186           	6.286385e-03	1.377574e-03	1.555178e-03	5.562634e-03
187           	6.241424e-03	1.370743e-03	1.547908e-03	5.549862e-03
188           	6.197176e-03	1.364086e-03	1.540664e-03	5.539590e-03
189           	6.154766e-03	1.357492e-03	1.533504e-03	5.530106e-03
190           	6.114110e-03	1.351084e-03	1.526698e-03	5.524886e-03
191           	6.071920e-03	1.344814e-03	1.520024e-03	5.517804e-03
192           	6.030433e-03	1.338315e-03	1.512251e-03	5.499659e-03
193           	5.989149e-03	1.331942e-03	1.505287e-03	5.488030e-03
194           	5.948406e-03	1.325748e-03	1.498367e-03	5.479202e-03
195           	5.909132e-03	1.319623e-03	1.491477e-03	5.470675e-03
196           	5.871813e-03	1.313677e-03	1.484962e-03	5.466666e-03
197           	5.833364e-03	1.307869e-03	1.478613e-03	5.460546e-03
198           	5.795709e-03	1.301832e-03	1.471193e-03	5.443455e-03
199           	5.758519e-03	1.295909e-03	1.464512e-03	5.432641e-03
200           	5.721932e-03	1.290162e-03	1.457845e-03	5.424728e-03
201           	5.686936e-03	1.284485e-03	1.451251e-03	5.417243e-03
202           	5.653497e-03	1.278983e-03	1.445063e-03	5.413742e-03
203           	5.618868e-03	1.273603e-03	1.439029e-03	5.408644e-03
204           	5.585141e-03	1.267985e-03	1.431898e-03	5.392717e-03
205           	5.551579e-03	1.262474e-03	1.425551e-03	5.382762e-03
206           	5.518121e-03	1.257131e-03	1.419221e-03	5.376057e-03
207           	5.485814e-03	1.251862e-03	1.412957e-03	5.369871e-03
208           	5.454957e-03	1.246770e-03	1.407111e-03	5.367554e-03
209           	5.422512e-03	1.241793e-03	1.401447e-03	5.363424e-03
210           	5.390878e-03	1.236584e-03	1.394677e-03	5.348273e-03
211           	5.359175e-03	1.231487e-03	1.388751e-03	5.339709e-03
212           	5.327428e-03	1.226553e-03	1.382861e-03	5.334110e-03
213           	5.296874e-03	1.221684e-03	1.377041e-03	5.328830e-03
214           	5.267844e-03	1.216998e-03	1.371646e-03	5.328104e-03
215           	5.237245e-03	1.212423e-03	1.366392e-03	5.324900e-03
216           	5.207107e-03	1.207600e-03	1.360060e-03	5.311241e-03
217           	5.177148e-03	1.202881e-03	1.354560e-03	5.303860e-03
218           	5.147562e-03	1.198327e-03	1.349111e-03	5.298689e-03
219           	5.119696e-03	1.193822e-03	1.343750e-03	5.294289e-03
220           	5.093606e-03	1.189482e-03	1.338761e-03	5.294236e-03
221           	5.065973e-03	1.185257e-03	1.333938e-03	5.291916e-03
222           	5.038866e-03	1.180791e-03	1.328015e-03	5.278554e-03
223           	5.011871e-03	1.176449e-03	1.322959e-03	5.271417e-03
224           	4.985163e-03	1.172268e-03	1.317967e-03	5.266986e-03
225           	4.959762e-03	1.168147e-03	1.313006e-03	5.263275e-03
226           	4.935926e-03	1.164194e-03	1.308528e-03	5.263488e-03
227           	4.910658e-03	1.160353e-03	1.304204e-03	5.261743e-03
228           	4.885820e-03	1.156251e-03	1.298780e-03	5.249249e-03
229           	4.861170e-03	1.152254e-03	1.294134e-03	5.242925e-03
230           	4.836622e-03	1.148433e-03	1.289559e-03	5.239246e-03
231           	4.813335e-03	1.144632e-03	1.285137e-03	5.236061e-03
232           	4.791689e-03	1.141007e-03	1.281113e-03	5.237178e-03
233           	4.768539e-03	1.137498e-03	1.277179e-03	5.235967e-03
234           	4.745867e-03	1.133716e-03	1.272174e-03	5.223597e-03
235           	4.723330e-03	1.130074e-03	1.268010e-03	5.217548e-03
236           	4.701027e-03	1.126587e-03	1.263888e-03	5.213831e-03
237           	4.679945e-03	1.123146e-03	1.259863e-03	5.210867e-03
238           	4.660411e-03	1.119870e-03	1.256225e-03	5.211516e-03
239           	4.639023e-03	1.116683e-03	1.252736e-03	5.210190e-03
240           	4.618201e-03	1.113247e-03	1.248198e-03	5.197573e-03
241           	4.597411e-03	1.109925e-03	1.244500e-03	5.191191e-03
242           	4.576766e-03	1.106753e-03	1.240844e-03	5.187087e-03
243           	4.557365e-03	1.103604e-03	1.237217e-03	5.183112e-03
244           	4.539516e-03	1.100609e-03	1.234023e-03	5.183165e-03
245           	4.520237e-03	1.097721e-03	1.230935e-03	5.181807e-03
246           	4.501445e-03	1.094588e-03	1.226835e-03	5.169197e-03
247           	4.482703e-03	1.091543e-03	1.223594e-03	5.162765e-03
248           	4.463999e-03	1.088631e-03	1.220400e-03	5.159047e-03
249           	4.446787e-03	1.085765e-03	1.217352e-03	5.156134e-03
250           	4.430861e-03	1.083048e-03	1.214723e-03	5.157211e-03
251           	4.413064e-03	1.080426e-03	1.212273e-03	5.156618e-03
252           	4.395707e-03	1.077548e-03	1.208800e-03	5.144171e-03
253           	4.378198e-03	1.074763e-03	1.206257e-03	5.138770e-03
254           	4.360674e-03	1.072107e-03	1.203736e-03	5.136345e-03
255           	4.344285e-03	1.069485e-03	1.201334e-03	5.134546e-03
256           	4.328819e-03	1.067012e-03	1.199278e-03	5.137238e-03
257           	4.311526e-03	1.064635e-03	1.197451e-03	5.137681e-03
258           	4.294743e-03	1.061990e-03	1.194580e-03	5.127658e-03
259           	4.278028e-03	1.059425e-03	1.192602e-03	5.124273e-03
260           	4.261319e-03	1.056975e-03	1.190661e-03	5.123401e-03
261           	4.245764e-03	1.054546e-03	1.188853e-03	5.123441e-03
262           	4.231730e-03	1.052257e-03	1.187454e-03	5.128105e-03
263           	4.215910e-03	1.050052e-03	1.186195e-03	5.130608e-03
264           	4.200676e-03	1.047585e-03	1.183873e-03	5.121673e-03
265           	4.185448e-03	1.045203e-03	1.182400e-03	5.120082e-03
266           	4.170144e-03	1.042954e-03	1.180995e-03	5.121113e-03
267           	4.155858e-03	1.040722e-03	1.179695e-03	5.122941e-03
268           	4.142899e-03	1.038626e-03	1.178781e-03	5.129555e-03
269           	4.128070e-03	1.036614e-03	1.178018e-03	5.134794e-03
270           	4.113497e-03	1.034322e-03	1.176161e-03	5.127848e-03
271           	4.098943e-03	1.032099e-03	1.175182e-03	5.126604e-03
272           	4.084342e-03	1.030014e-03	1.174228e-03	5.129265e-03
273           	4.070906e-03	1.027945e-03	1.173356e-03	5.132615e-03
274           	4.058478e-03	1.026003e-03	1.172918e-03	5.139158e-03
275           	4.044139e-03	1.024147e-03	1.172615e-03	5.143958e-03
276           	4.030557e-03	1.022018e-03	1.171168e-03	5.137706e-03
277           	4.017233e-03	1.019963e-03	1.170558e-03	5.137729e-03
278           	4.004149e-03	1.018028e-03	1.169973e-03	5.139741e-03
279           	3.992408e-03	1.016095e-03	1.169496e-03	5.144241e-03
280           	3.981842e-03	1.014299e-03	1.169474e-03	5.152734e-03
281           	3.969540e-03	1.012577e-03	1.169523e-03	5.158737e-03
282           	3.957469e-03	1.010571e-03	1.168513e-03	5.153484e-03
283           	3.945499e-03	1.008620e-03	1.168339e-03	5.155482e-03
284           	3.933900e-03	1.006796e-03	1.168180e-03	5.159672e-03
285           	3.923521e-03	1.004974e-03	1.168063e-03	5.164254e-03
286           	3.914378e-03	1.003272e-03	1.168316e-03	5.174118e-03
287           	3.903291e-03	1.001633e-03	1.168663e-03	5.181635e-03
288           	3.892550e-03	9.996883e-04	1.167927e-03	5.177074e-03
289           	3.881812e-03	9.977998e-04	1.168027e-03	5.179471e-03
290           	3.870895e-03	9.960203e-04	1.168023e-03	5.185425e-03
291           	3.860863e-03	9.942428e-04	1.168126e-03	5.191194e-03
292           	3.851949e-03	9.925810e-04	1.168582e-03	5.200685e-03
293           	3.841168e-03	9.909703e-04	1.169083e-03	5.208036e-03
294           	3.830554e-03	9.890802e-04	1.168449e-03	5.203468e-03
295           	3.819981e-03	9.872440e-04	1.168674e-03	5.205548e-03
296           	3.809309e-03	9.855106e-04	1.168846e-03	5.210668e-03
297           	3.799484e-03	9.837720e-04	1.168996e-03	5.215271e-03
298           	3.790768e-03	9.821243e-04	1.169499e-03	5.224415e-03
299           	3.780302e-03	9.805278e-04	1.170099e-03	5.230929e-03
300           	3.770389e-03	9.786302e-04	1.169501e-03	5.224320e-03
301           	3.760342e-03	9.767690e-04	1.169681e-03	5.224854e-03
302           	3.750108e-03	9.750026e-04	1.169765e-03	5.227565e-03
303           	3.741181e-03	9.732117e-04	1.169806e-03	5.229876e-03
304           	3.733286e-03	9.715152e-04	1.170174e-03	5.236743e-03
305           	3.723446e-03	9.698668e-04	1.170616e-03	5.240813e-03
306           	3.713933e-03	9.679258e-04	1.169907e-03	5.232633e-03
307           	3.704262e-03	9.660315e-04	1.169965e-03	5.231096e-03
308           	3.694551e-03	9.642167e-04	1.169906e-03	5.231769e-03
309           	3.685839e-03	9.623888e-04	1.169878e-03	5.232855e-03
310           	3.678269e-03	9.606590e-04	1.170118e-03	5.238224e-03
311           	3.668784e-03	9.589652e-04	1.170440e-03	5.240568e-03
312           	3.659272e-03	9.569657e-04	1.169611e-03	5.230417e-03
313           	3.649398e-03	9.550070e-04	1.169559e-03	5.227206e-03
314           	3.639457e-03	9.531490e-04	1.169473e-03	5.226176e-03
315           	3.630697e-03	9.512774e-04	1.169381e-03	5.224882e-03
316           	3.622988e-03	9.494974e-04	1.169650e-03	5.227734e-03
317           	3.613375e-03	9.477621e-04	1.169983e-03	5.228252e-03
318           	3.603942e-03	9.457356e-04	1.169180e-03	5.215970e-03
319           	3.594409e-03	9.437571e-04	1.169172e-03	5.210026e-03
320           	3.584809e-03	9.418768e-04	1.169105e-03	5.206989e-03
321           	3.576173e-03	9.399950e-04	1.168998e-03	5.203914e-03
322           	3.568572e-03	9.382130e-04	1.169257e-03	5.205358e-03
323           	3.559038e-03	9.364754e-04	1.169610e-03	5.203887e-03
324           	3.549915e-03	9.344387e-04	1.168732e-03	5.189722e-03
325           	3.540762e-03	9.324570e-04	1.168608e-03	5.181751e-03
326           	3.531500e-03	9.305750e-04	1.168455e-03	5.175728e-03
327           	3.523349e-03	9.286822e-04	1.168303e-03	5.169992e-03
328           	3.516399e-03	9.268923e-04	1.168466e-03	5.168718e-03
329           	3.507536e-03	9.251477e-04	1.168713e-03	5.164741e-03
330           	3.498718e-03	9.231004e-04	1.167793e-03	5.148110e-03
331           	3.489848e-03	9.210911e-04	1.167630e-03	5.138085e-03
332           	3.480847e-03	9.191832e-04	1.167456e-03	5.130193e-03
333           	3.472882e-03	9.172622e-04	1.167254e-03	5.122203e-03
334           	3.465993e-03	9.154428e-04	1.167353e-03	5.118698e-03
335           	3.457256e-03	9.136737e-04	1.167531e-03	5.112285e-03
336           	3.448666e-03	9.116132e-04	1.166547e-03	5.093308e-03
337           	3.439861e-03	9.096158e-04	1.166377e-03	5.081105e-03
338           	3.430909e-03	9.077254e-04	1.166156e-03	5.071555e-03
339           	3.423079e-03	9.058358e-04	1.165919e-03	5.062309e-03
340           	3.416334e-03	9.040593e-04	1.166000e-03	5.057639e-03
341           	3.407632e-03	9.023422e-04	1.166184e-03	5.050402e-03
342           	3.399177e-03	9.003454e-04	1.165180e-03	5.030544e-03
343           	3.390607e-03	8.984065e-04	1.164931e-03	5.017048e-03
344           	3.381941e-03	8.966054e-04	1.164659e-03	5.006242e-03
345           	3.374299e-03	8.947948e-04	1.164393e-03	4.995661e-03
346           	3.367820e-03	8.930967e-04	1.164476e-03	4.989647e-03
347           	3.359517e-03	8.914534e-04	1.164642e-03	4.981563e-03
348           	3.351477e-03	8.895220e-04	1.163625e-03	4.961251e-03
349           	3.343272e-03	8.876524e-04	1.163392e-03	4.947554e-03
350           	3.334973e-03	8.858913e-04	1.163096e-03	4.936409e-03
351           	3.327739e-03	8.841311e-04	1.162842e-03	4.925812e-03
352           	3.321633e-03	8.824774e-04	1.162921e-03	4.920033e-03
353           	3.313735e-03	8.808945e-04	1.163117e-03	4.911996e-03
354           	3.306057e-03	8.790419e-04	1.162126e-03	4.891674e-03
355           	3.298179e-03	8.772489e-04	1.161933e-03	4.878315e-03
356           	3.290095e-03	8.755653e-04	1.161734e-03	4.868019e-03
357           	3.283054e-03	8.738621e-04	1.161544e-03	4.857775e-03
358           	3.277210e-03	8.722669e-04	1.161637e-03	4.852058e-03
359           	3.269524e-03	8.707383e-04	1.161823e-03	4.844022e-03
360           	3.262070e-03	8.689302e-04	1.160792e-03	4.824237e-03
361           	3.254631e-03	8.671838e-04	1.160571e-03	4.811357e-03
362           	3.247042e-03	8.655345e-04	1.160302e-03	4.801458e-03
363           	3.240502e-03	8.638757e-04	1.160077e-03	4.791926e-03
364           	3.235142e-03	8.623279e-04	1.160190e-03	4.786847e-03
365           	3.227961e-03	8.608332e-04	1.160408e-03	4.779632e-03
366           	3.220978e-03	8.590589e-04	1.159414e-03	4.760365e-03
367           	3.213852e-03	8.573390e-04	1.159196e-03	4.748123e-03
368           	3.206669e-03	8.557236e-04	1.158941e-03	4.738734e-03
369           	3.200657e-03	8.541104e-04	1.158711e-03	4.729624e-03
370           	3.195939e-03	8.525982e-04	1.158820e-03	4.725140e-03
371           	3.189568e-03	8.511359e-04	1.159003e-03	4.718427e-03
372           	3.183550e-03	8.493999e-04	1.157967e-03	4.699696e-03
373           	3.177397e-03	8.477099e-04	1.157725e-03	4.688009e-03
374           	3.171214e-03	8.461194e-04	1.157435e-03	4.679122e-03
375           	3.166091e-03	8.445122e-04	1.157152e-03	4.670578e-03
376           	3.162142e-03	8.429981e-04	1.157224e-03	4.666590e-03
377           	3.156470e-03	8.415269e-04	1.157378e-03	4.660250e-03
378           	3.151181e-03	8.397704e-04	1.156302e-03	4.641781e-03
379           	3.145839e-03	8.380556e-04	1.156011e-03	4.630171e-03
380           	3.140438e-03	8.364448e-04	1.155695e-03	4.621390e-03
381           	3.136009e-03	8.348262e-04	1.155398e-03	4.612842e-03
382           	3.132632e-03	8.333012e-04	1.155423e-03	4.608847e-03
383           	3.127350e-03	8.318205e-04	1.155521e-03	4.602662e-03
384           	3.122230e-03	8.300534e-04	1.154392e-03	4.584369e-03
385           	3.116979e-03	8.283361e-04	1.154069e-03	4.572962e-03
386           	3.111578e-03	8.267309e-04	1.153703e-03	4.564397e-03
387           	3.107234e-03	8.251215e-04	1.153347e-03	4.556151e-03
388           	3.104110e-03	8.236104e-04	1.153324e-03	4.552529e-03
389           	3.099143e-03	8.221467e-04	1.153389e-03	4.546855e-03
390           	3.094506e-03	8.204001e-04	1.152245e-03	4.529016e-03
391           	3.089831e-03	8.187013e-04	1.151891e-03	4.518165e-03
392           	3.085097e-03	8.171099e-04	1.151481e-03	4.510226e-03
393           	3.081440e-03	8.155129e-04	1.151075e-03	4.502696e-03
394           	3.078879e-03	8.140143e-04	1.151014e-03	4.499812e-03
395           	3.074579e-03	8.125672e-04	1.151016e-03	4.494751e-03
396           	3.070549e-03	8.108365e-04	1.149767e-03	4.477656e-03
397           	3.066404e-03	8.091616e-04	1.149314e-03	4.467361e-03
398           	3.062097e-03	8.075803e-04	1.148821e-03	4.459959e-03
399           	3.058767e-03	8.059928e-04	1.148311e-03	4.452957e-03
400           	3.056584e-03	8.045134e-04	1.148106e-03	4.450416e-03
401           	3.052587e-03	8.030830e-04	1.147972e-03	4.445740e-03
402           	3.048773e-03	8.013767e-04	1.146593e-03	4.428987e-03
403           	3.044755e-03	7.997203e-04	1.146008e-03	4.419178e-03
404           	3.040601e-03	7.981610e-04	1.145345e-03	4.412267e-03
405           	3.037441e-03	7.965966e-04	1.144659e-03	4.405769e-03
406           	3.035334e-03	7.951380e-04	1.144288e-03	4.403740e-03
407           	3.031391e-03	7.937274e-04	1.143986e-03	4.399363e-03
408           	3.027731e-03	7.920328e-04	1.142420e-03	4.382879e-03
409           	3.023877e-03	7.903896e-04	1.141645e-03	4.373249e-03
410           	3.019874e-03	7.888592e-04	1.140787e-03	4.366469e-03
411           	3.016855e-03	7.873239e-04	1.139936e-03	4.359978e-03
412           	3.014878e-03	7.858897e-04	1.139405e-03	4.358036e-03
413           	3.011012e-03	7.845081e-04	1.138933e-03	4.353719e-03
414           	3.007288e-03	7.828454e-04	1.137183e-03	4.337140e-03
415           	3.003384e-03	7.812385e-04	1.136229e-03	4.327298e-03
416           	2.999230e-03	7.797224e-04	1.135177e-03	4.320256e-03
417           	2.996004e-03	7.781982e-04	1.134118e-03	4.313361e-03
418           	2.993889e-03	7.767860e-04	1.133406e-03	4.310911e-03
419           	2.989943e-03	7.754240e-04	1.132762e-03	4.306031e-03
420           	2.986201e-03	7.737827e-04	1.130839e-03	4.288992e-03
421           	2.982331e-03	7.721863e-04	1.129719e-03	4.278671e-03
422           	2.978290e-03	7.706890e-04	1.128561e-03	4.271028e-03
423           	2.975249e-03	7.691802e-04	1.127404e-03	4.263574e-03
424           	2.973344e-03	7.677751e-04	1.126552e-03	4.260444e-03
425           	2.969706e-03	7.664176e-04	1.125763e-03	4.254900e-03
426           	2.966368e-03	7.647859e-04	1.123684e-03	4.237268e-03
427           	2.963025e-03	7.632052e-04	1.122418e-03	4.226356e-03
428           	2.959639e-03	7.617239e-04	1.121070e-03	4.217990e-03
429           	2.957308e-03	7.602440e-04	1.119743e-03	4.209765e-03
430           	2.956124e-03	7.588794e-04	1.118767e-03	4.205894e-03
431           	2.953130e-03	7.575692e-04	1.117865e-03	4.199619e-03
432           	2.950330e-03	7.559831e-04	1.115656e-03	4.181176e-03
433           	2.947365e-03	7.544509e-04	1.114260e-03	4.169433e-03
434           	2.944218e-03	7.530309e-04	1.112827e-03	4.160392e-03
435           	2.942033e-03	7.516112e-04	1.111411e-03	4.151553e-03
436           	2.940888e-03	7.502938e-04	1.110335e-03	4.146983e-03
437           	2.937851e-03	7.490270e-04	1.109318e-03	4.140006e-03
438           	2.935034e-03	7.474889e-04	1.107006e-03	4.120833e-03
439           	2.932049e-03	7.459999e-04	1.105534e-03	4.108283e-03
440           	2.928815e-03	7.446109e-04	1.104019e-03	4.098472e-03
441           	2.926492e-03	7.432159e-04	1.102526e-03	4.088806e-03
442           	2.925222e-03	7.419325e-04	1.101395e-03	4.083579e-03
443           	2.922085e-03	7.407070e-04	1.100367e-03	4.076058e-03
444           	2.919174e-03	7.392030e-04	1.098060e-03	4.056480e-03
445           	2.916051e-03	7.377427e-04	1.096609e-03	4.043621e-03
446           	2.912772e-03	7.363795e-04	1.095130e-03	4.033572e-03