# Region type : patch ent
# Faces  :    322
# Area   :    1.250000e-07
# Time        	areaAverage(p)
0             	0.000000e+00
1             	8.687139e+04
2             	7.535774e+04
3             	4.088840e+04
4             	6.605360e+03
5             	-1.787924e+04
6             	-2.858793e+04
7             	-2.805294e+04
8             	-2.023435e+04
9             	-9.461990e+03
10            	2.924134e+02
11            	6.735455e+03
12            	9.252707e+03
13            	8.512261e+03
14            	5.833808e+03
15            	2.608704e+03
16            	-9.807978e+01
17            	-1.721394e+03
18            	-2.179261e+03
19            	-1.743228e+03
20            	-8.301315e+02
21            	1.450427e+02
22            	8.855368e+02
23            	1.256082e+03
24            	1.271005e+03
25            	1.038170e+03
26            	6.977920e+02
27            	3.746211e+02
28            	1.495666e+02
29            	5.029166e+01
30            	6.107850e+01
31            	1.404000e+02
32            	2.417099e+02
33            	3.273255e+02
34            	3.761703e+02
35            	3.837090e+02
36            	3.589427e+02
37            	3.168073e+02
38            	2.725697e+02
39            	2.372269e+02
40            	2.158560e+02
41            	2.082953e+02
42            	2.106015e+02
43            	2.175684e+02
44            	2.242265e+02
45            	2.274615e+02
46            	2.261964e+02
47            	2.208494e+02
48            	2.129594e+02
49            	2.043794e+02
50            	1.965537e+02
51            	1.904006e+02
52            	1.860755e+02
53            	1.832114e+02
54            	1.812322e+02
55            	1.795213e+02
56            	1.775622e+02
57            	1.751084e+02
58            	1.722387e+02
59            	1.691505e+02
60            	1.660190e+02
61            	1.630155e+02
62            	1.602531e+02
63            	1.577684e+02
64            	1.555194e+02
65            	1.534513e+02
66            	1.514946e+02
67            	1.495887e+02
68            	1.477071e+02
69            	1.458103e+02
70            	1.439351e+02
71            	1.420817e+02
72            	1.402774e+02
73            	1.385387e+02
74            	1.368729e+02
75            	1.352783e+02
76            	1.337496e+02
77            	1.322746e+02
78            	1.308415e+02
79            	1.294420e+02
80            	1.280738e+02
81            	1.267355e+02
82            	1.254300e+02
83            	1.241573e+02
84            	1.229155e+02
85            	1.217095e+02
86            	1.205380e+02
87            	1.193990e+02
88            	1.182894e+02
89            	1.172062e+02
90            	1.161476e+02
91            	1.151140e+02
92            	1.141032e+02
93            	1.131159e+02
94            	1.121510e+02
95            	1.112068e+02
96            	1.102832e+02
97            	1.093810e+02
98            	1.084992e+02
99            	1.076368e+02
100           	1.067929e+02
101           	1.059663e+02
102           	1.051559e+02
103           	1.043630e+02
104           	1.035852e+02
105           	1.028219e+02
106           	1.020739e+02
107           	1.013387e+02
108           	1.006192e+02
109           	9.991501e+01
110           	9.922354e+01
111           	9.854545e+01
112           	9.788006e+01
113           	9.722447e+01
114           	9.658142e+01
115           	9.595122e+01
116           	9.533251e+01
117           	9.472480e+01
118           	9.412727e+01
119           	9.353892e+01
120           	9.296049e+01
121           	9.239164e+01
122           	9.183263e+01
123           	9.128168e+01
124           	9.074013e+01
125           	9.020726e+01
126           	8.968288e+01
127           	8.916792e+01
128           	8.865952e+01
129           	8.815915e+01
130           	8.766694e+01
131           	8.718312e+01
132           	8.670687e+01
133           	8.623716e+01
134           	8.577392e+01
135           	8.531767e+01
136           	8.486783e+01
137           	8.442434e+01
138           	8.398720e+01
139           	8.355071e+01
140           	8.312339e+01
141           	8.270479e+01
142           	8.229502e+01
143           	8.188763e+01
144           	8.148689e+01
145           	8.108942e+01
146           	8.069729e+01
147           	8.031228e+01
148           	7.993275e+01
149           	7.955748e+01
150           	7.918703e+01
151           	7.882016e+01
152           	7.845790e+01
153           	7.810078e+01
154           	7.774830e+01
155           	7.739901e+01
156           	7.705422e+01
157           	7.671329e+01
158           	7.638054e+01
159           	7.604964e+01
160           	7.571987e+01
161           	7.539499e+01
162           	7.507250e+01
163           	7.475836e+01
164           	7.444717e+01
165           	7.413903e+01
166           	7.383021e+01
167           	7.352864e+01
168           	7.324537e+01
169           	7.295509e+01
170           	7.266054e+01
171           	7.236815e+01
172           	7.207951e+01
173           	7.179381e+01
174           	7.151338e+01
175           	7.123259e+01
176           	7.096014e+01
177           	7.069366e+01
178           	7.042770e+01
179           	7.016574e+01
180           	6.990588e+01
181           	6.964401e+01
182           	6.938542e+01
183           	6.913221e+01
184           	6.888200e+01
185           	6.863710e+01
186           	6.839719e+01
187           	6.815017e+01
188           	6.790617e+01
189           	6.766876e+01
190           	6.743361e+01
191           	6.719940e+01
192           	6.696785e+01
193           	6.673989e+01
194           	6.651540e+01
195           	6.629410e+01
196           	6.607419e+01
197           	6.585363e+01
198           	6.563709e+01
199           	6.542203e+01
200           	6.520704e+01
201           	6.499469e+01
202           	6.478652e+01
203           	6.458004e+01
204           	6.437686e+01
205           	6.417503e+01
206           	6.397457e+01
207           	6.377631e+01
208           	6.357989e+01
209           	6.338521e+01
210           	6.319219e+01
211           	6.299825e+01
212           	6.280741e+01
213           	6.262039e+01
214           	6.243634e+01
215           	6.225379e+01
216           	6.207221e+01
217           	6.189233e+01
218           	6.171315e+01
219           	6.153548e+01
220           	6.136004e+01
221           	6.118680e+01
222           	6.101610e+01
223           	6.084674e+01
224           	6.067649e+01
225           	6.050634e+01
226           	6.034111e+01
227           	6.017954e+01
228           	6.001971e+01
229           	5.986102e+01
230           	5.970307e+01
231           	5.954578e+01
232           	5.938865e+01
233           	5.923309e+01
234           	5.907894e+01
235           	5.892532e+01
236           	5.877517e+01
237           	5.862771e+01
238           	5.848199e+01
239           	5.833751e+01
240           	5.819309e+01
241           	5.804963e+01
242           	5.790703e+01
243           	5.776613e+01
244           	5.762604e+01
245           	5.748713e+01
246           	5.735117e+01
247           	5.721651e+01
248           	5.708275e+01
249           	5.695015e+01
250           	5.682418e+01
251           	5.669063e+01
252           	5.655931e+01
253           	5.643120e+01
254           	5.630471e+01
255           	5.617955e+01
256           	5.605532e+01
257           	5.593296e+01
258           	5.581177e+01
259           	5.569159e+01
260           	5.557284e+01
261           	5.545433e+01
262           	5.533492e+01
263           	5.521860e+01
264           	5.510310e+01
265           	5.498747e+01
266           	5.487801e+01
267           	5.476356e+01
268           	5.465096e+01
269           	5.453941e+01
270           	5.442971e+01
271           	5.432198e+01
272           	5.421508e+01
273           	5.410955e+01
274           	5.400467e+01
275           	5.390461e+01
276           	5.379897e+01
277           	5.369382e+01
278           	5.359056e+01
279           	5.348958e+01
280           	5.339150e+01
281           	5.329162e+01
282           	5.319808e+01
283           	5.310180e+01
284           	5.300072e+01
285           	5.290273e+01
286           	5.280661e+01
287           	5.271645e+01
288           	5.262410e+01
289           	5.253074e+01
290           	5.243912e+01
291           	5.234539e+01
292           	5.225650e+01
293           	5.216905e+01
294           	5.207963e+01
295           	5.199265e+01
296           	5.190472e+01
297           	5.182068e+01
298           	5.173605e+01
299           	5.165203e+01
300           	5.156828e+01
301           	5.148363e+01
302           	5.140084e+01
303           	5.131897e+01
304           	5.123766e+01
305           	5.115557e+01
306           	5.107561e+01
307           	5.099626e+01
308           	5.091789e+01
309           	5.084046e+01
310           	5.076451e+01
311           	5.069081e+01
312           	5.061433e+01
313           	5.053982e+01
314           	5.046591e+01
315           	5.039150e+01
316           	5.031661e+01
317           	5.024452e+01
318           	5.017309e+01
319           	5.010277e+01
320           	5.003078e+01
321           	4.996097e+01
322           	4.989191e+01
323           	4.982254e+01
324           	4.975405e+01
325           	4.968475e+01
326           	4.961531e+01
327           	4.954745e+01
328           	4.948207e+01
329           	4.941774e+01
330           	4.935376e+01
331           	4.928928e+01
332           	4.922491e+01
333           	4.916051e+01
334           	4.909833e+01
335           	4.903426e+01
336           	4.897038e+01
337           	4.890801e+01
338           	4.884624e+01
339           	4.878633e+01
340           	4.872594e+01
341           	4.866695e+01
342           	4.860846e+01
343           	4.855017e+01
344           	4.849167e+01
345           	4.843146e+01
346           	4.837303e+01
347           	4.831581e+01
348           	4.825879e+01
349           	4.820146e+01
350           	4.814564e+01
351           	4.809122e+01
352           	4.803763e+01
353           	4.798464e+01
354           	4.792440e+01
355           	4.786821e+01
356           	4.781412e+01
357           	4.776256e+01
358           	4.771184e+01
359           	4.766209e+01
360           	4.761117e+01
361           	4.756044e+01
362           	4.750988e+01
363           	4.745790e+01
364           	4.740637e+01
365           	4.735499e+01
366           	4.730286e+01
367           	4.725355e+01
368           	4.720534e+01
369           	4.715875e+01
370           	4.711230e+01
371           	4.706537e+01
372           	4.701793e+01
373           	4.696832e+01
374           	4.692123e+01
375           	4.687371e+01
376           	4.682771e+01
377           	4.678303e+01
378           	4.673799e+01
379           	4.669283e+01
380           	4.664693e+01
381           	4.660154e+01
382           	4.655676e+01
383           	4.651289e+01
384           	4.646981e+01
385           	4.642576e+01
386           	4.638267e+01
387           	4.634041e+01
388           	4.629672e+01
389           	4.625394e+01
390           	4.621138e+01
391           	4.616939e+01
392           	4.612895e+01
393           	4.608779e+01
394           	4.605311e+01
395           	4.601152e+01
396           	4.597195e+01
397           	4.592997e+01
398           	4.588654e+01
399           	4.584390e+01
400           	4.580313e+01
401           	4.576420e+01
402           	4.572726e+01
403           	4.568987e+01
404           	4.565235e+01
405           	4.561372e+01
406           	4.557370e+01
407           	4.553496e+01
408           	4.549649e+01
409           	4.545792e+01
410           	4.542073e+01
411           	4.538345e+01
412           	4.534674e+01
413           	4.531028e+01
414           	4.527430e+01
415           	4.523822e+01
416           	4.520111e+01
417           	4.516461e+01
418           	4.512769e+01
419           	4.509165e+01
420           	4.505645e+01
421           	4.502049e+01
422           	4.498627e+01
423           	4.495242e+01
424           	4.491828e+01
425           	4.488417e+01
426           	4.485100e+01
427           	4.481523e+01
428           	4.477942e+01
429           	4.474474e+01
430           	4.471122e+01
431           	4.467889e+01
432           	4.464797e+01
433           	4.461726e+01
434           	4.458628e+01
435           	4.455488e+01
436           	4.452175e+01
437           	4.448887e+01
438           	4.445609e+01
439           	4.440537e+01
440           	4.437745e+01
441           	4.434672e+01
442           	4.431895e+01
443           	4.429271e+01
444           	4.426609e+01
445           	4.423829e+01
446           	4.420800e+01
447           	4.417936e+01
448           	4.415026e+01
449           	4.412159e+01
450           	4.409317e+01
451           	4.406403e+01
452           	4.403588e+01
453           	4.400922e+01
454           	4.398233e+01
455           	4.395325e+01
456           	4.392338e+01
457           	4.389716e+01
458           	4.386946e+01
459           	4.384412e+01
460           	4.381683e+01
461           	4.378811e+01
462           	4.376256e+01
463           	4.373619e+01
464           	4.371028e+01
465           	4.368216e+01
466           	4.365411e+01
467           	4.362927e+01
468           	4.360263e+01
469           	4.357742e+01
470           	4.355260e+01
471           	4.352766e+01
472           	4.350205e+01
473           	4.347757e+01
474           	4.345266e+01
475           	4.342654e+01
476           	4.339797e+01
477           	4.337266e+01
478           	4.334899e+01
479           	4.332647e+01
480           	4.330337e+01
481           	4.327883e+01
482           	4.325365e+01
483           	4.322960e+01
484           	4.320666e+01
485           	4.318391e+01
486           	4.316021e+01
487           	4.313721e+01
488           	4.311311e+01
489           	4.309056e+01
490           	4.306833e+01
491           	4.304554e+01
492           	4.302302e+01
493           	4.300114e+01
494           	4.297911e+01
495           	4.295667e+01
496           	4.293314e+01
497           	4.291077e+01
498           	4.288777e+01
499           	4.286698e+01
500           	4.284600e+01
501           	4.282376e+01
502           	4.280327e+01
503           	4.278285e+01
504           	4.276285e+01
505           	4.274096e+01
506           	4.271818e+01
507           	4.269654e+01
508           	4.267473e+01
509           	4.265580e+01
510           	4.263568e+01
511           	4.261549e+01
512           	4.259564e+01
513           	4.257576e+01
514           	4.255612e+01
515           	4.253604e+01
516           	4.251395e+01
517           	4.249366e+01
518           	4.247257e+01
519           	4.245409e+01
520           	4.243596e+01
521           	4.241851e+01
522           	4.240150e+01
523           	4.238354e+01
524           	4.236070e+01
525           	4.236071e+01
526           	4.233768e+01
527           	4.231562e+01
528           	4.229512e+01
529           	4.227569e+01
530           	4.225686e+01
531           	4.223927e+01
532           	4.222129e+01
533           	4.220400e+01
534           	4.218605e+01
535           	4.216766e+01
536           	4.214837e+01
537           	4.213063e+01
538           	4.211462e+01
539           	4.209982e+01
540           	4.208319e+01
541           	4.206726e+01
542           	4.204959e+01
543           	4.203303e+01
544           	4.201733e+01
545           	4.200265e+01
546           	4.198867e+01
547           	4.197400e+01
548           	4.195880e+01
549           	4.194493e+01
550           	4.192976e+01
551           	4.191570e+01
552           	4.189881e+01
553           	4.188373e+01
554           	4.186931e+01
555           	4.185525e+01
556           	4.184131e+01
557           	4.182754e+01
558           	4.181309e+01
559           	4.179995e+01
560           	4.178848e+01
561           	4.177716e+01
562           	4.176405e+01
563           	4.175061e+01
564           	4.173749e+01
565           	4.172481e+01
566           	4.171314e+01
567           	4.170043e+01
568           	4.172391e+01
569           	4.170628e+01
570           	4.168869e+01
571           	4.167122e+01
572           	4.165579e+01
573           	4.164409e+01
574           	4.163410e+01
575           	4.162489e+01
576           	4.161579e+01
577           	4.160468e+01
578           	4.159362e+01
579           	4.158248e+01
580           	4.157075e+01
581           	4.155825e+01
582           	4.154645e+01
583           	4.153621e+01
584           	4.152523e+01
585           	4.151224e+01
586           	4.150005e+01
587           	4.148929e+01
588           	4.147879e+01
589           	4.146746e+01
590           	4.145605e+01
591           	4.144504e+01
592           	4.143482e+01
593           	4.142582e+01
594           	4.141660e+01
595           	4.140459e+01
596           	4.139136e+01
597           	4.138113e+01
598           	4.137052e+01
599           	4.136086e+01
600           	4.135095e+01
601           	4.134031e+01
602           	4.133058e+01
603           	4.132002e+01
604           	4.131040e+01
605           	4.129829e+01
606           	4.128499e+01
607           	4.127485e+01
608           	4.126696e+01
609           	4.125985e+01
610           	4.125087e+01
611           	4.124060e+01
612           	4.123192e+01
613           	4.122224e+01
614           	4.121302e+01
615           	4.120273e+01
616           	4.119125e+01
617           	4.118271e+01
618           	4.117421e+01
619           	4.116660e+01
620           	4.115836e+01
621           	4.114886e+01
622           	4.113972e+01
623           	4.113138e+01
624           	4.112372e+01
625           	4.111376e+01
626           	4.110390e+01
627           	4.109600e+01
628           	4.108915e+01
629           	4.108106e+01
630           	4.107272e+01
631           	4.106513e+01
632           	4.105611e+01
633           	4.104871e+01
634           	4.104216e+01
635           	4.103326e+01
636           	4.102492e+01
637           	4.101671e+01
638           	4.100949e+01
639           	4.100349e+01
640           	4.099656e+01
641           	4.098739e+01
642           	4.097908e+01
643           	4.097178e+01
644           	4.096475e+01
645           	4.095672e+01
646           	4.094866e+01
647           	4.094138e+01
648           	4.093530e+01
649           	4.092938e+01
650           	4.092192e+01
651           	4.091430e+01
652           	4.090677e+01
653           	4.089901e+01
654           	4.089279e+01
655           	4.088605e+01
656           	4.087769e+01
657           	4.086948e+01
658           	4.086314e+01
659           	4.085837e+01
660           	4.085351e+01
661           	4.084693e+01
662           	4.084082e+01
663           	4.083380e+01
664           	4.082739e+01
665           	4.082062e+01
666           	4.081249e+01
667           	4.080626e+01
668           	4.080032e+01
669           	4.079380e+01
670           	4.078798e+01
671           	4.078081e+01
672           	4.077509e+01
673           	4.077030e+01
674           	4.076568e+01
675           	4.075996e+01
676           	4.075300e+01
677           	4.074715e+01
678           	4.074116e+01
679           	4.073376e+01
680           	4.072706e+01
681           	4.072068e+01
682           	4.071619e+01
683           	4.071237e+01
684           	4.070661e+01
685           	4.070036e+01
686           	4.069398e+01
687           	4.068855e+01
688           	4.068278e+01
689           	4.067607e+01
690           	4.067082e+01
691           	4.066524e+01
692           	4.066106e+01
693           	4.065716e+01
694           	4.065133e+01
695           	4.064528e+01
696           	4.063862e+01
697           	4.063323e+01
698           	4.062859e+01
699           	4.062375e+01
700           	4.061825e+01
701           	4.061261e+01
702           	4.060777e+01
703           	4.060401e+01
704           	4.060006e+01
705           	4.059504e+01
706           	4.058781e+01
707           	4.058155e+01
708           	4.057649e+01
709           	4.057256e+01
710           	4.056938e+01
711           	4.056487e+01
712           	4.055936e+01
713           	4.055587e+01
714           	4.055263e+01
715           	4.054859e+01
716           	4.054376e+01
717           	4.053820e+01
718           	4.053303e+01
719           	4.052896e+01
720           	4.052535e+01
721           	4.052086e+01
722           	4.051693e+01
723           	4.051442e+01
724           	4.051180e+01
725           	4.050763e+01
726           	4.050286e+01
727           	4.049901e+01
728           	4.049560e+01
729           	4.049239e+01
730           	4.048813e+01
731           	4.048383e+01
732           	4.048081e+01
733           	4.047877e+01
734           	4.047707e+01
735           	4.047350e+01
736           	4.047172e+01
737           	4.046804e+01
738           	4.046471e+01
739           	4.046154e+01
740           	4.045754e+01
741           	4.045406e+01
742           	4.045171e+01
743           	4.045055e+01
744           	4.044887e+01
745           	4.044483e+01
746           	4.044137e+01
747           	4.043841e+01
748           	4.043559e+01
749           	4.043285e+01
750           	4.042999e+01
751           	4.042778e+01
752           	4.042680e+01
753           	4.042632e+01
754           	4.042536e+01
755           	4.042220e+01
756           	4.041834e+01
757           	4.041513e+01
758           	4.041295e+01
759           	4.041124e+01
760           	4.040899e+01
761           	4.040555e+01
762           	4.040387e+01
763           	4.040147e+01
764           	4.039983e+01
765           	4.039714e+01
766           	4.039464e+01
767           	4.039361e+01
768           	4.039193e+01
769           	4.039085e+01
770           	4.038920e+01
771           	4.038654e+01
772           	4.038433e+01
773           	4.038109e+01
774           	4.037800e+01
775           	4.037506e+01
776           	4.037189e+01
777           	4.037009e+01
778           	4.036913e+01
779           	4.036721e+01
780           	4.036629e+01
781           	4.036408e+01
782           	4.036050e+01
783           	4.035786e+01
784           	4.035500e+01
785           	4.035321e+01
786           	4.035145e+01
787           	4.034923e+01
788           	4.034685e+01
789           	4.034408e+01
790           	4.034115e+01
791           	4.034040e+01
792           	4.033706e+01
793           	4.033337e+01
794           	4.033271e+01
795           	4.033076e+01
796           	4.032763e+01
797           	4.032241e+01
798           	4.031762e+01
799           	4.031321e+01
800           	4.030996e+01
801           	4.030780e+01
802           	4.030700e+01
803           	4.030563e+01
804           	4.030385e+01
805           	4.030058e+01
806           	4.029593e+01
807           	4.029256e+01
808           	4.028915e+01
809           	4.028634e+01
810           	4.028408e+01
811           	4.027891e+01
812           	4.027553e+01
813           	4.027285e+01
814           	4.027124e+01
815           	4.026862e+01
816           	4.026225e+01
817           	4.025825e+01
818           	4.025527e+01
819           	4.025242e+01
820           	4.024986e+01
821           	4.024470e+01
822           	4.024051e+01
823           	4.023725e+01
824           	4.023341e+01
825           	4.022921e+01
826           	4.022307e+01
827           	4.021880e+01
828           	4.021539e+01
829           	4.021195e+01
830           	4.020862e+01
831           	4.020342e+01
832           	4.019888e+01
833           	4.019464e+01
834           	4.019017e+01
835           	4.018651e+01
836           	4.018044e+01
837           	4.017619e+01
838           	4.017269e+01
839           	4.016911e+01
840           	4.016501e+01
841           	4.015856e+01
842           	4.015345e+01
843           	4.014932e+01
844           	4.014463e+01
845           	4.014032e+01
846           	4.013375e+01
847           	4.012904e+01
848           	4.012473e+01
849           	4.012068e+01
850           	4.011615e+01
851           	4.010956e+01
852           	4.010363e+01
853           	4.009789e+01
854           	4.009345e+01
855           	4.008968e+01
856           	4.008304e+01
857           	4.007849e+01
858           	4.007402e+01
859           	4.006921e+01
860           	4.006417e+01
861           	4.005635e+01
862           	4.005005e+01
863           	4.004438e+01
864           	4.003983e+01
865           	4.003553e+01
866           	4.002968e+01
867           	4.002478e+01
868           	4.001960e+01
869           	4.001336e+01
870           	4.000680e+01
871           	3.999931e+01
872           	3.999282e+01
873           	3.998798e+01
874           	3.998218e+01
875           	3.997741e+01
876           	3.997093e+01
877           	3.996533e+01
878           	3.996070e+01
879           	3.995500e+01
880           	3.994850e+01
881           	3.994047e+01
882           	3.993451e+01
883           	3.992916e+01
884           	3.992295e+01
885           	3.991637e+01
886           	3.990964e+01
887           	3.990397e+01
888           	3.989802e+01
889           	3.989074e+01
890           	3.988307e+01
891           	3.987616e+01
892           	3.987111e+01
893           	3.986688e+01
894           	3.986147e+01
895           	3.985490e+01
896           	3.984662e+01
897           	3.983792e+01
898           	3.983175e+01
899           	3.982670e+01
900           	3.982161e+01
901           	3.981554e+01
902           	3.980850e+01
903           	3.980277e+01
904           	3.979700e+01
905           	3.979035e+01
906           	3.978303e+01
907           	3.977557e+01
908           	3.976906e+01
909           	3.976229e+01
910           	3.975607e+01
911           	3.974890e+01
912           	3.974013e+01
913           	3.973391e+01
914           	3.972847e+01
915           	3.972258e+01
916           	3.971602e+01
917           	3.970867e+01
918           	3.970069e+01
919           	3.969409e+01
920           	3.968804e+01
921           	3.968134e+01
922           	3.967457e+01
923           	3.966828e+01
924           	3.966135e+01
925           	3.965479e+01
926           	3.964799e+01
927           	3.964120e+01
928           	3.963492e+01
929           	3.962844e+01
930           	3.962184e+01
931           	3.961461e+01
932           	3.960621e+01
933           	3.959889e+01
934           	3.959152e+01
935           	3.958423e+01
936           	3.957733e+01
937           	3.957178e+01
938           	3.956633e+01
939           	3.956036e+01
940           	3.955385e+01
941           	3.954573e+01
942           	3.953709e+01
943           	3.953027e+01
944           	3.952310e+01
945           	3.951498e+01
946           	3.950621e+01
947           	3.949818e+01
948           	3.949111e+01
949           	3.948549e+01
950           	3.947904e+01
951           	3.947160e+01
952           	3.946544e+01
953           	3.945925e+01
954           	3.945322e+01
955           	3.944570e+01
956           	3.943593e+01
957           	3.942764e+01
958           	3.942046e+01
959           	3.941378e+01
960           	3.940637e+01
961           	3.939798e+01
962           	3.939166e+01
963           	3.938567e+01
964           	3.937945e+01
965           	3.937209e+01
966           	3.936271e+01
967           	3.935510e+01
968           	3.934732e+01
969           	3.933988e+01
970           	3.933231e+01
971           	3.932307e+01
972           	3.931608e+01
973           	3.931034e+01
974           	3.930485e+01
975           	3.929795e+01
976           	3.928870e+01
977           	3.928118e+01
978           	3.927447e+01
979           	3.926804e+01
980           	3.926094e+01
981           	3.925102e+01
982           	3.924338e+01
983           	3.923642e+01
984           	3.922952e+01
985           	3.922193e+01
986           	3.921326e+01
987           	3.920622e+01
988           	3.920009e+01
989           	3.919405e+01
990           	3.918738e+01
991           	3.917858e+01
992           	3.917089e+01
993           	3.916334e+01
994           	3.915653e+01
995           	3.914812e+01
996           	3.913857e+01
997           	3.913167e+01
998           	3.912560e+01
999           	3.912002e+01
1000          	3.911400e+01
1001          	3.910627e+01
1002          	3.909953e+01
1003          	3.909272e+01
1004          	3.908453e+01
1005          	3.907574e+01
1006          	3.906681e+01
1007          	3.906013e+01
1008          	3.905396e+01
1009          	3.904675e+01
1010          	3.904037e+01
1011          	3.903287e+01
1012          	3.902630e+01
1013          	3.901981e+01
1014          	3.901217e+01
1015          	3.900394e+01
1016          	3.899434e+01
1017          	3.898696e+01
1018          	3.898152e+01
1019          	3.897677e+01
1020          	3.897063e+01
1021          	3.896357e+01
1022          	3.895708e+01
1023          	3.895100e+01
1024          	3.894420e+01
1025          	3.893463e+01
1026          	3.892538e+01
1027          	3.891846e+01
1028          	3.891252e+01
1029          	3.890744e+01
1030          	3.890120e+01
1031          	3.889381e+01
1032          	3.888700e+01
1033          	3.888072e+01
1034          	3.887428e+01
1035          	3.886590e+01
1036          	3.885830e+01
1037          	3.885207e+01
1038          	3.884686e+01
1039          	3.884155e+01
1040          	3.883422e+01
1041          	3.882657e+01
1042          	3.881952e+01
1043          	3.881310e+01
1044          	3.880641e+01
1045          	3.879846e+01
1046          	3.879389e+01
1047          	3.878816e+01
1048          	3.878183e+01
1049          	3.877541e+01
1050          	3.876795e+01
1051          	3.876015e+01
1052          	3.875251e+01
1053          	3.874606e+01
1054          	3.873853e+01
1055          	3.873008e+01
1056          	3.872324e+01
1057          	3.871789e+01
1058          	3.871310e+01
1059          	3.870789e+01
1060          	3.869955e+01
1061          	3.869196e+01
1062          	3.868609e+01
1063          	3.868038e+01
1064          	3.867418e+01
1065          	3.866607e+01
1066          	3.865724e+01