# Forces      
# CofR        : (0.000000e+00 0.000000e+00 0.000000e+00)
# Time        forces(pressure viscous)	moments(pressure viscous)
0             	((0.000000e+00 0.000000e+00 0.000000e+00) (0.000000e+00 0.000000e+00 0.000000e+00)) ((0.000000e+00 0.000000e+00 0.000000e+00) (0.000000e+00 0.000000e+00 0.000000e+00))
1             	((-3.763333e+00 1.518562e-01 1.291519e-02) (8.335349e-03 -1.031516e-04 -5.603568e-04)) ((-2.262128e-05 -5.731952e-04 -2.365362e-03) (1.000087e-07 5.560426e-06 2.112672e-06))
2             	((-3.177996e+00 1.261211e-01 3.356594e-03) (1.616377e-01 -1.978902e-03 7.088252e-05)) ((-1.661322e-05 -3.229058e-04 -2.108221e-03) (1.584648e-07 1.228494e-05 3.981146e-05))
3             	((-1.656716e+00 6.188279e-02 -6.205458e-03) (1.892866e-01 -2.211482e-03 5.717610e-04)) ((-5.495051e-06 5.012891e-05 -1.141239e-03) (1.213107e-07 7.946561e-06 4.724319e-05))
4             	((-1.665971e-01 1.864971e-03 -1.206244e-02) (1.483872e-01 -1.478595e-03 6.661432e-04)) ((3.864750e-06 3.062955e-04 -2.019737e-04) (5.747817e-08 2.686441e-06 3.859767e-05))
5             	((8.731603e-01 -3.657670e-02 -8.255892e-03) (7.980283e-02 -6.599808e-04 2.832402e-04)) ((7.372027e-06 3.671784e-04 4.831505e-04) (8.718392e-08 -1.579440e-07 2.240491e-05))
6             	((1.316818e+00 -5.292361e-02 -4.451007e-03) (2.074121e-02 3.809006e-05 -1.067007e-04)) ((8.206438e-06 3.159883e-04 7.381745e-04) (1.291790e-07 -1.955800e-06 8.652525e-06))
7             	((1.265744e+00 -4.928801e-02 -3.819495e-04) (-1.188085e-02 3.095332e-04 -1.939115e-04)) ((6.483537e-06 2.030731e-04 7.179141e-04) (1.088017e-07 -3.645883e-06 1.618855e-07))
8             	((8.988128e-01 -3.341765e-02 2.615916e-03) (-1.658323e-02 2.594109e-04 -4.659434e-05)) ((3.613389e-06 7.881898e-05 5.285166e-04) (4.269904e-08 -5.082785e-06 -2.409422e-06))
9             	((4.081460e-01 -1.360741e-02 4.304924e-03) (-1.595329e-03 -3.168600e-06 9.949992e-05)) ((5.860058e-07 -2.733320e-05 2.642701e-04) (-2.527609e-09 -5.149518e-06 -3.594102e-07))
10            	((-2.648186e-02 3.027660e-03 4.632044e-03) (2.000628e-02 -2.905177e-04 1.353707e-04)) ((-1.667518e-06 -9.124275e-05 1.766580e-05) (-6.056755e-09 -3.733005e-06 3.993332e-06))
11            	((-3.088449e-01 1.310722e-02 4.054335e-03) (4.089249e-02 -5.312032e-04 9.089098e-05)) ((-2.847822e-06 -1.125413e-04 -1.511796e-04) (1.700715e-08 -1.711838e-06 8.699569e-06))
12            	((-4.139859e-01 1.577630e-02 2.985490e-03) (5.668870e-02 -6.859535e-04 2.703726e-05)) ((-2.941066e-06 -1.000099e-04 -2.295481e-04) (4.507988e-08 7.028750e-08 1.250289e-05))
13            	((-3.740947e-01 1.331968e-02 1.806792e-03) (6.536447e-02 -7.488127e-04 -2.178967e-05)) ((-2.349403e-06 -6.978600e-05 -2.272984e-04) (6.571410e-08 1.200502e-06 1.476969e-05))
14            	((-2.492007e-01 8.195346e-03 7.594401e-04) (6.694840e-02 -7.344831e-04 -4.945999e-05)) ((-1.417282e-06 -3.404029e-05 -1.719097e-04) (7.626901e-08 1.637960e-06 1.538821e-05))
15            	((-1.022365e-01 3.019609e-03 -3.611476e-05) (6.307642e-02 -6.705453e-04 -6.075590e-05)) ((-5.185316e-07 -3.612254e-06 -9.281891e-05) (7.833728e-08 1.568828e-06 1.464298e-05))
16            	((1.900925e-02 -7.774657e-04 -5.305972e-04) (5.624294e-02 -5.875362e-04 -6.216739e-05)) ((1.355914e-07 1.554720e-05 -1.806334e-05) (7.502156e-08 1.239462e-06 1.306720e-05))
17            	((8.980202e-02 -2.592140e-03 -7.511953e-04) (4.895039e-02 -5.103718e-04 -5.844931e-05)) ((4.622993e-07 2.250332e-05 3.403643e-05) (6.910791e-08 8.544840e-07 1.125723e-05))
18            	((1.072828e-01 -2.747309e-03 -7.386355e-04) (4.303488e-02 -4.528996e-04 -5.253926e-05)) ((4.946883e-07 1.918160e-05 5.530599e-05) (6.261227e-08 5.533535e-07 9.700391e-06))
19            	((8.427755e-02 -1.698658e-03 -6.097193e-04) (3.934254e-02 -4.183613e-04 -4.717854e-05)) ((3.401356e-07 1.098737e-05 5.364681e-05) (5.698685e-08 3.975758e-07 8.648578e-06))
20            	((4.048058e-02 -2.626603e-04 -4.000347e-04) (3.781868e-02 -4.022445e-04 -4.457329e-05)) ((9.678529e-08 8.975095e-07 3.485784e-05) (5.293910e-08 3.865085e-07 8.136886e-06))
21            	((-5.019877e-03 9.876595e-04 -1.745098e-04) (3.783934e-02 -3.963572e-04 -4.533002e-05)) ((-1.362723e-07 -7.679122e-06 9.635460e-06) (5.054073e-08 4.790645e-07 8.058093e-06))
22            	((-3.888983e-02 1.745432e-03 8.599353e-06) (3.856570e-02 -3.930375e-04 -4.868621e-05)) ((-3.008674e-07 -1.319344e-05 -1.349682e-05) (4.932149e-08 6.152572e-07 8.223304e-06))
23            	((-5.529299e-02 2.002264e-03 1.120741e-04) (3.924098e-02 -3.872361e-04 -5.324037e-05)) ((-3.759222e-07 -1.496355e-05 -2.787264e-05) (4.868198e-08 7.416588e-07 8.435646e-06))
24            	((-5.517917e-02 1.814537e-03 1.309288e-04) (3.937115e-02 -3.764973e-04 -5.767926e-05)) ((-3.647484e-07 -1.371574e-05 -3.302408e-05) (4.810247e-08 8.259913e-07 8.552469e-06))
25            	((-4.378165e-02 1.359110e-03 8.413308e-05) (3.877747e-02 -3.606035e-04 -6.100371e-05)) ((-2.942271e-07 -1.078157e-05 -3.061824e-05) (4.722655e-08 8.549986e-07 8.508342e-06))
26            	((-2.774805e-02 8.774090e-04 -4.163922e-07) (3.754366e-02 -3.413660e-04 -6.277748e-05)) ((-2.024067e-07 -7.344450e-06 -2.335418e-05) (4.593901e-08 8.335757e-07 8.301129e-06))
27            	((-1.291994e-02 4.957709e-04 -9.668041e-05) (3.591401e-02 -3.211894e-04 -6.299486e-05)) ((-1.127886e-07 -4.299782e-06 -1.432884e-05) (4.425724e-08 7.761874e-07 7.973556e-06))
28            	((-2.898550e-03 2.935286e-04 -1.744630e-04) (3.417817e-02 -3.022456e-04 -6.194762e-05)) ((-4.894245e-08 -2.300144e-06 -6.384488e-06) (4.226808e-08 7.003625e-07 7.589618e-06))
29            	((1.179909e-03 2.593558e-04 -2.187398e-04) (3.257822e-02 -2.859187e-04 -6.013950e-05)) ((-1.643365e-08 -1.465848e-06 -1.151234e-06) (4.013987e-08 6.225259e-07 7.211959e-06))
30            	((2.042192e-04 3.355994e-04 -2.232961e-04) (3.125538e-02 -2.725826e-04 -5.815154e-05)) ((-1.281951e-08 -1.660579e-06 7.748612e-07) (3.804556e-08 5.546369e-07 6.885469e-06))
31            	((-3.828503e-03 4.638112e-04 -1.999098e-04) (3.024116e-02 -2.618901e-04 -5.646336e-05)) ((-2.784594e-08 -2.435025e-06 1.920661e-07) (3.612751e-08 5.031692e-07 6.629298e-06))
32            	((-8.726399e-03 5.678129e-04 -1.583423e-04) (2.948310e-02 -2.530155e-04 -5.533638e-05)) ((-5.000915e-08 -3.470633e-06 -2.172409e-06) (3.446640e-08 4.692819e-07 6.440805e-06))
33            	((-1.275664e-02 6.232874e-04 -1.158798e-04) (2.888591e-02 -2.450812e-04 -5.480576e-05)) ((-6.943909e-08 -4.362442e-06 -5.114117e-06) (3.308832e-08 4.499651e-07 6.303974e-06))
34            	((-1.496321e-02 6.287047e-04 -8.130764e-05) (2.834880e-02 -2.375161e-04 -5.469860e-05)) ((-8.174296e-08 -4.950158e-06 -7.568779e-06) (3.194746e-08 4.398501e-07 6.194926e-06))
35            	((-1.524463e-02 5.774202e-04 -6.055176e-05) (2.779548e-02 -2.298838e-04 -5.481136e-05)) ((-8.260458e-08 -5.141387e-06 -9.106977e-06) (3.097843e-08 4.336984e-07 6.092333e-06))
36            	((-1.404170e-02 5.039429e-04 -5.389001e-05) (2.718712e-02 -2.221002e-04 -5.496423e-05)) ((-7.515389e-08 -5.015946e-06 -9.536242e-06) (3.011468e-08 4.263386e-07 5.981730e-06))
37            	((-1.208154e-02 4.370278e-04 -5.914333e-05) (2.652048e-02 -2.143338e-04 -5.500378e-05)) ((-6.284333e-08 -4.658561e-06 -8.949201e-06) (2.928461e-08 4.148786e-07 5.856062e-06))
38            	((-1.007244e-02 3.878374e-04 -7.058192e-05) (2.581761e-02 -2.068127e-04 -5.487103e-05)) ((-4.877008e-08 -4.194649e-06 -7.753568e-06) (2.844412e-08 3.984247e-07 5.716006e-06))
39            	((-8.516736e-03 3.581041e-04 -8.225819e-05) (2.511182e-02 -1.996947e-04 -5.459821e-05)) ((-3.599127e-08 -3.770354e-06 -6.437975e-06) (2.758301e-08 3.775938e-07 5.567862e-06))
40            	((-7.633430e-03 3.475752e-04 -9.084850e-05) (2.443465e-02 -1.930875e-04 -5.423518e-05)) ((-2.641760e-08 -3.463367e-06 -5.369920e-06) (2.671219e-08 3.543673e-07 5.419877e-06))
41            	((-7.385603e-03 3.476851e-04 -9.412830e-05) (2.380712e-02 -1.870284e-04 -5.383534e-05)) ((-2.050414e-08 -3.303086e-06 -4.724483e-06) (2.585709e-08 3.310326e-07 5.279246e-06))
42            	((-7.568569e-03 3.513160e-04 -9.190249e-05) (2.323644e-02 -1.814653e-04 -5.344533e-05)) ((-1.781392e-08 -3.260842e-06 -4.483369e-06) (2.504831e-08 3.096398e-07 5.150274e-06))
43            	((-7.939916e-03 3.567501e-04 -8.569431e-05) (2.271825e-02 -1.763548e-04 -5.309261e-05)) ((-1.787048e-08 -3.311868e-06 -4.525769e-06) (2.431241e-08 2.916352e-07 5.033739e-06))
44            	((-8.276253e-03 3.549064e-04 -7.764656e-05) (2.224145e-02 -1.716145e-04 -5.278782e-05)) ((-1.873730e-08 -3.404604e-06 -4.778994e-06) (2.366358e-08 2.774814e-07 4.928572e-06))
45            	((-8.440051e-03 3.442069e-04 -6.975098e-05) (2.179278e-02 -1.671375e-04 -5.253377e-05)) ((-1.924719e-08 -3.494866e-06 -5.107058e-06) (2.310096e-08 2.666322e-07 4.832628e-06))
46            	((-8.385902e-03 3.292296e-04 -6.340779e-05) (2.136070e-02 -1.628616e-04 -5.232960e-05)) ((-1.903049e-08 -3.551176e-06 -5.357120e-06) (2.261383e-08 2.579742e-07 4.742871e-06))
47            	((-8.144799e-03 3.101120e-04 -5.918111e-05) (2.093776e-02 -1.587476e-04 -5.217662e-05)) ((-1.756574e-08 -3.559217e-06 -5.501041e-06) (2.218551e-08 2.503151e-07 4.656629e-06))
48            	((-7.792390e-03 2.924094e-04 -5.709602e-05) (2.052110e-02 -1.547756e-04 -5.206706e-05)) ((-1.512001e-08 -3.504263e-06 -5.461854e-06) (2.179536e-08 2.425254e-07 4.571942e-06))
49            	((-7.414295e-03 2.792286e-04 -5.679024e-05) (2.011159e-02 -1.509585e-04 -5.199158e-05)) ((-1.228039e-08 -3.412822e-06 -5.285092e-06) (2.142659e-08 2.339987e-07 4.487704e-06))
50            	((-7.078341e-03 2.695389e-04 -5.744603e-05) (1.971232e-02 -1.473062e-04 -5.193158e-05)) ((-9.348514e-09 -3.308080e-06 -5.042634e-06) (2.106810e-08 2.246668e-07 4.404065e-06))
51            	((-6.821139e-03 2.616539e-04 -5.775713e-05) (1.932678e-02 -1.438153e-04 -5.187454e-05)) ((-6.784643e-09 -3.208335e-06 -4.817299e-06) (2.071948e-08 2.147898e-07 4.321997e-06))
52            	((-6.646208e-03 2.569060e-04 -5.852714e-05) (1.895755e-02 -1.405049e-04 -5.179100e-05)) ((-4.620396e-09 -3.128419e-06 -4.619704e-06) (2.037756e-08 2.049918e-07 4.242595e-06))
53            	((-6.534408e-03 2.521172e-04 -5.854341e-05) (1.860559e-02 -1.373649e-04 -5.165830e-05)) ((-3.014028e-09 -3.076261e-06 -4.483786e-06) (2.004172e-08 1.958603e-07 4.166435e-06))
54            	((-6.457697e-03 2.475426e-04 -5.799066e-05) (1.827027e-02 -1.343924e-04 -5.149834e-05)) ((-1.934987e-09 -3.046217e-06 -4.407633e-06) (1.972610e-08 1.875474e-07 4.094001e-06))
55            	((-6.388749e-03 2.426618e-04 -5.715977e-05) (1.795005e-02 -1.315633e-04 -5.130149e-05)) ((-1.152695e-09 -3.026211e-06 -4.378217e-06) (1.942294e-08 1.803020e-07 4.025140e-06))
56            	((-6.308541e-03 2.367388e-04 -5.601520e-05) (1.764295e-02 -1.288629e-04 -5.108057e-05)) ((-5.065639e-10 -3.008403e-06 -4.377101e-06) (1.913048e-08 1.739685e-07 3.959632e-06))
57            	((-6.206428e-03 2.304739e-04 -5.451902e-05) (1.734696e-02 -1.262818e-04 -5.087651e-05)) ((-3.108043e-11 -2.983921e-06 -4.375910e-06) (1.885810e-08 1.679877e-07 3.897068e-06))
58            	((-6.085054e-03 2.235342e-04 -5.352057e-05) (1.706052e-02 -1.238160e-04 -5.069699e-05)) ((6.963778e-10 -2.956334e-06 -4.364934e-06) (1.860079e-08 1.621409e-07 3.837036e-06))
59            	((-5.953267e-03 2.159119e-04 -5.313779e-05) (1.678285e-02 -1.214386e-04 -5.053713e-05)) ((1.737746e-09 -2.922281e-06 -4.344202e-06) (1.835181e-08 1.563038e-07 3.779096e-06))
60            	((-5.817541e-03 2.096910e-04 -5.321674e-05) (1.651351e-02 -1.191509e-04 -5.040600e-05)) ((2.811607e-09 -2.883059e-06 -4.297411e-06) (1.811647e-08 1.501973e-07 3.722923e-06))
61            	((-5.687014e-03 2.040797e-04 -5.363104e-05) (1.625236e-02 -1.169332e-04 -5.026656e-05)) ((3.949833e-09 -2.841785e-06 -4.235703e-06) (1.788050e-08 1.441562e-07 3.668073e-06))
62            	((-5.567068e-03 1.990402e-04 -5.423361e-05) (1.599947e-02 -1.147821e-04 -5.009432e-05)) ((5.087592e-09 -2.800087e-06 -4.166570e-06) (1.763764e-08 1.384121e-07 3.614544e-06))
63            	((-5.459374e-03 1.945435e-04 -5.486017e-05) (1.575492e-02 -1.127060e-04 -4.989284e-05)) ((6.148212e-09 -2.760464e-06 -4.097409e-06) (1.739368e-08 1.329372e-07 3.562491e-06))
64            	((-5.363155e-03 1.899928e-04 -5.534148e-05) (1.551862e-02 -1.107101e-04 -4.966387e-05)) ((7.090841e-09 -2.727345e-06 -4.042769e-06) (1.715097e-08 1.277670e-07 3.512117e-06))
65            	((-5.274412e-03 1.858532e-04 -5.553919e-05) (1.529035e-02 -1.088028e-04 -4.942353e-05)) ((7.868486e-09 -2.691987e-06 -3.996714e-06) (1.691638e-08 1.227863e-07 3.463591e-06))
66            	((-5.189482e-03 1.821845e-04 -5.588289e-05) (1.506966e-02 -1.069913e-04 -4.917571e-05)) ((8.609000e-09 -2.662145e-06 -3.952592e-06) (1.668778e-08 1.179411e-07 3.416887e-06))
67            	((-5.106439e-03 1.786118e-04 -5.621776e-05) (1.485608e-02 -1.052551e-04 -4.891924e-05)) ((9.325394e-09 -2.635531e-06 -3.913574e-06) (1.646018e-08 1.132869e-07 3.371746e-06))
68            	((-5.024299e-03 1.745820e-04 -5.656620e-05) (1.464918e-02 -1.035813e-04 -4.867212e-05)) ((1.007435e-08 -2.612216e-06 -3.886900e-06) (1.623873e-08 1.086427e-07 3.328117e-06))
69            	((-4.942150e-03 1.709323e-04 -5.696477e-05) (1.444859e-02 -1.019573e-04 -4.842555e-05)) ((1.079237e-08 -2.590106e-06 -3.865273e-06) (1.601782e-08 1.040954e-07 3.285871e-06))
70            	((-4.860289e-03 1.670629e-04 -5.747718e-05) (1.425398e-02 -1.003780e-04 -4.816801e-05)) ((1.157241e-08 -2.567977e-06 -3.842456e-06) (1.579254e-08 9.971799e-08 3.244893e-06))
71            	((-4.779328e-03 1.634151e-04 -5.780054e-05) (1.406498e-02 -9.884384e-05 -4.791055e-05)) ((1.226580e-08 -2.542810e-06 -3.814515e-06) (1.556995e-08 9.538502e-08 3.205069e-06))
72            	((-4.700380e-03 1.596601e-04 -5.826275e-05) (1.388136e-02 -9.736389e-05 -4.764654e-05)) ((1.301800e-08 -2.521371e-06 -3.780985e-06) (1.534895e-08 9.115759e-08 3.166416e-06))
73            	((-4.624131e-03 1.560933e-04 -5.881899e-05) (1.370297e-02 -9.593101e-05 -4.737049e-05)) ((1.379784e-08 -2.500426e-06 -3.746139e-06) (1.512839e-08 8.708792e-08 3.128837e-06))
74            	((-4.550811e-03 1.528381e-04 -5.943238e-05) (1.352966e-02 -9.454942e-05 -4.709617e-05)) ((1.458680e-08 -2.478380e-06 -3.710502e-06) (1.491489e-08 8.300153e-08 3.092345e-06))
75            	((-4.480167e-03 1.501328e-04 -6.001199e-05) (1.336124e-02 -9.321537e-05 -4.681228e-05)) ((1.529283e-08 -2.458361e-06 -3.675995e-06) (1.470186e-08 7.900227e-08 3.056856e-06))
76            	((-4.412559e-03 1.475015e-04 -6.051368e-05) (1.319760e-02 -9.192548e-05 -4.651119e-05)) ((1.595502e-08 -2.440128e-06 -3.647294e-06) (1.448431e-08 7.520072e-08 3.022376e-06))
77            	((-4.346917e-03 1.448788e-04 -6.090511e-05) (1.303852e-02 -9.067550e-05 -4.620180e-05)) ((1.657598e-08 -2.423099e-06 -3.617746e-06) (1.426508e-08 7.149878e-08 2.988859e-06))
78            	((-4.283023e-03 1.425020e-04 -6.131172e-05) (1.288381e-02 -8.946547e-05 -4.588986e-05)) ((1.714705e-08 -2.407349e-06 -3.590697e-06) (1.404567e-08 6.787035e-08 2.956274e-06))
79            	((-4.220852e-03 1.401185e-04 -6.168128e-05) (1.273332e-02 -8.829596e-05 -4.557987e-05)) ((1.771471e-08 -2.391684e-06 -3.564495e-06) (1.382825e-08 6.425630e-08 2.924635e-06))
80            	((-4.160144e-03 1.376095e-04 -6.200847e-05) (1.258685e-02 -8.716244e-05 -4.527334e-05)) ((1.827481e-08 -2.376721e-06 -3.539684e-06) (1.361355e-08 6.063853e-08 2.893893e-06))
81            	((-4.100785e-03 1.350835e-04 -6.234233e-05) (1.244425e-02 -8.606050e-05 -4.496678e-05)) ((1.884260e-08 -2.361653e-06 -3.514527e-06) (1.340045e-08 5.706261e-08 2.863994e-06))
82            	((-4.042880e-03 1.323338e-04 -6.269996e-05) (1.230536e-02 -8.498512e-05 -4.465550e-05)) ((1.943222e-08 -2.347604e-06 -3.491288e-06) (1.318729e-08 5.356856e-08 2.834888e-06))
83            	((-3.986041e-03 1.299225e-04 -6.306799e-05) (1.217003e-02 -8.393611e-05 -4.433499e-05)) ((1.998924e-08 -2.333760e-06 -3.464654e-06) (1.297273e-08 5.019741e-08 2.806514e-06))
84            	((-3.930552e-03 1.277071e-04 -6.343210e-05) (1.203812e-02 -8.291607e-05 -4.400482e-05)) ((2.051798e-08 -2.320437e-06 -3.437941e-06) (1.275632e-08 4.695746e-08 2.778818e-06))
85            	((-3.876564e-03 1.255780e-04 -6.380463e-05) (1.190954e-02 -8.192522e-05 -4.366715e-05)) ((2.104452e-08 -2.306933e-06 -3.411741e-06) (1.253859e-08 4.381755e-08 2.751816e-06))
86            	((-3.823876e-03 1.236607e-04 -6.411926e-05) (1.178417e-02 -8.096350e-05 -4.332449e-05)) ((2.151179e-08 -2.294654e-06 -3.387740e-06) (1.232006e-08 4.074107e-08 2.725512e-06))
87            	((-3.772316e-03 1.220662e-04 -6.443403e-05) (1.166190e-02 -8.003264e-05 -4.298062e-05)) ((2.192508e-08 -2.282766e-06 -3.361736e-06) (1.210208e-08 3.770093e-08 2.699881e-06))
88            	((-3.722111e-03 1.204144e-04 -6.472810e-05) (1.154262e-02 -7.913088e-05 -4.263713e-05)) ((2.233851e-08 -2.270584e-06 -3.336299e-06) (1.188510e-08 3.468048e-08 2.674874e-06))
89            	((-3.673065e-03 1.188332e-04 -6.501233e-05) (1.142621e-02 -7.825501e-05 -4.229325e-05)) ((2.273302e-08 -2.258556e-06 -3.310728e-06) (1.166864e-08 3.168588e-08 2.650476e-06))
90            	((-3.625244e-03 1.172227e-04 -6.528987e-05) (1.131259e-02 -7.740273e-05 -4.194835e-05)) ((2.313625e-08 -2.245796e-06 -3.285149e-06) (1.145249e-08 2.872770e-08 2.626661e-06))
91            	((-3.578424e-03 1.156482e-04 -6.555659e-05) (1.120164e-02 -7.657258e-05 -4.160145e-05)) ((2.350873e-08 -2.234376e-06 -3.260769e-06) (1.123621e-08 2.581350e-08 2.603410e-06))
92            	((-3.532917e-03 1.137634e-04 -6.582217e-05) (1.109329e-02 -7.576131e-05 -4.125129e-05)) ((2.390236e-08 -2.223526e-06 -3.239054e-06) (1.101968e-08 2.296917e-08 2.580719e-06))
93            	((-3.488205e-03 1.122792e-04 -6.574063e-05) (1.098744e-02 -7.497046e-05 -4.090568e-05)) ((2.410628e-08 -2.209744e-06 -3.219158e-06) (1.080665e-08 2.011430e-08 2.558594e-06))
94            	((-3.444420e-03 1.107044e-04 -6.607537e-05) (1.088402e-02 -7.420878e-05 -4.055649e-05)) ((2.447164e-08 -2.198662e-06 -3.194470e-06) (1.059295e-08 1.732972e-08 2.537069e-06))
95            	((-3.401425e-03 1.093102e-04 -6.647345e-05) (1.078296e-02 -7.346320e-05 -4.019634e-05)) ((2.483083e-08 -2.188491e-06 -3.168632e-06) (1.037478e-08 1.468947e-08 2.515981e-06))
96            	((-3.359276e-03 1.080721e-04 -6.688954e-05) (1.068417e-02 -7.274084e-05 -3.984553e-05)) ((2.516944e-08 -2.179111e-06 -3.142907e-06) (1.016171e-08 1.198781e-08 2.495378e-06))
97            	((-3.317672e-03 1.071844e-04 -6.729503e-05) (1.058754e-02 -7.202573e-05 -3.948546e-05)) ((2.546045e-08 -2.169374e-06 -3.113552e-06) (9.944350e-09 9.424715e-09 2.475043e-06))
98            	((-3.277590e-03 1.059046e-04 -6.764241e-05) (1.049306e-02 -7.131900e-05 -3.911183e-05)) ((2.575694e-08 -2.160292e-06 -3.092679e-06) (9.720678e-09 7.056195e-09 2.455065e-06))
99            	((-3.237768e-03 1.050606e-04 -6.789695e-05) (1.040065e-02 -7.062968e-05 -3.874017e-05)) ((2.595791e-08 -2.151072e-06 -3.067280e-06) (9.498298e-09 4.702802e-09 2.435540e-06))
100           	((-3.198885e-03 1.042200e-04 -6.808724e-05) (1.031021e-02 -6.996428e-05 -3.837396e-05)) ((2.612133e-08 -2.141808e-06 -3.044428e-06) (9.278827e-09 2.349250e-09 2.416466e-06))
101           	((-3.161036e-03 1.031038e-04 -6.806429e-05) (1.022170e-02 -6.932443e-05 -3.802004e-05)) ((2.621764e-08 -2.131309e-06 -3.026487e-06) (9.065948e-09 -7.991655e-11 2.397937e-06))
102           	((-3.124070e-03 1.018108e-04 -6.817728e-05) (1.013507e-02 -6.870912e-05 -3.767246e-05)) ((2.637998e-08 -2.122517e-06 -3.005206e-06) (8.856873e-09 -2.524911e-09 2.379954e-06))
103           	((-3.087745e-03 1.006651e-04 -6.839520e-05) (1.005025e-02 -6.810470e-05 -3.731987e-05)) ((2.655885e-08 -2.114548e-06 -2.982812e-06) (8.645818e-09 -4.859820e-09 2.362325e-06))
104           	((-3.051890e-03 9.985404e-05 -6.865790e-05) (9.967199e-03 -6.751328e-05 -3.697216e-05)) ((2.670986e-08 -2.106424e-06 -2.958291e-06) (8.437394e-09 -7.187301e-09 2.345018e-06))
105           	((-3.016758e-03 9.905696e-05 -6.894948e-05) (9.885843e-03 -6.692869e-05 -3.661791e-05)) ((2.685838e-08 -2.099273e-06 -2.935390e-06) (8.225786e-09 -9.388250e-09 2.327961e-06))
106           	((-2.982271e-03 9.837207e-05 -6.922163e-05) (9.806151e-03 -6.634920e-05 -3.625118e-05)) ((2.697792e-08 -2.092330e-06 -2.913429e-06) (8.008064e-09 -1.139431e-08 2.311164e-06))
107           	((-2.948477e-03 9.771527e-05 -6.937882e-05) (9.728081e-03 -6.578093e-05 -3.588761e-05)) ((2.703455e-08 -2.084186e-06 -2.892809e-06) (7.791958e-09 -1.336868e-08 2.294698e-06))
108           	((-2.915241e-03 9.701728e-05 -6.957092e-05) (9.651577e-03 -6.523088e-05 -3.552633e-05)) ((2.710502e-08 -2.077908e-06 -2.870657e-06) (7.577308e-09 -1.530888e-08 2.278623e-06))
109           	((-2.882574e-03 9.642784e-05 -6.978318e-05) (9.576584e-03 -6.469754e-05 -3.517030e-05)) ((2.716404e-08 -2.072327e-06 -2.848834e-06) (7.365367e-09 -1.722830e-08 2.262901e-06))
110           	((-2.850370e-03 9.620980e-05 -6.976109e-05) (9.503045e-03 -6.418613e-05 -3.483664e-05)) ((2.708188e-08 -2.064824e-06 -2.828858e-06) (7.164583e-09 -1.931003e-08 2.247565e-06))
111           	((-2.818885e-03 9.570540e-05 -6.995064e-05) (9.430919e-03 -6.369661e-05 -3.450659e-05)) ((2.710782e-08 -2.059589e-06 -2.807504e-06) (6.965842e-09 -2.136234e-08 2.232618e-06))
112           	((-2.787833e-03 9.535192e-05 -7.023938e-05) (9.360197e-03 -6.321242e-05 -3.416460e-05)) ((2.713926e-08 -2.055986e-06 -2.785510e-06) (6.761654e-09 -2.321886e-08 2.217900e-06))
113           	((-2.757396e-03 9.494277e-05 -7.057025e-05) (9.290827e-03 -6.273915e-05 -3.383141e-05)) ((2.718301e-08 -2.053143e-06 -2.764057e-06) (6.562262e-09 -2.509147e-08 2.203458e-06))
114           	((-2.727493e-03 9.458333e-05 -7.089490e-05) (9.222768e-03 -6.226261e-05 -3.349051e-05)) ((2.721019e-08 -2.050723e-06 -2.743072e-06) (6.359414e-09 -2.681097e-08 2.189144e-06))
115           	((-2.698135e-03 9.425842e-05 -7.115496e-05) (9.156001e-03 -6.178741e-05 -3.313869e-05)) ((2.720584e-08 -2.048167e-06 -2.722744e-06) (6.151693e-09 -2.834063e-08 2.175012e-06))
116           	((-2.669172e-03 9.408935e-05 -7.134782e-05) (9.090482e-03 -6.132249e-05 -3.279162e-05)) ((2.715419e-08 -2.045528e-06 -2.702462e-06) (5.946655e-09 -2.984236e-08 2.161139e-06))
117           	((-2.640913e-03 9.386548e-05 -7.151292e-05) (9.026187e-03 -6.087121e-05 -3.245138e-05)) ((2.709405e-08 -2.042312e-06 -2.683698e-06) (5.745188e-09 -3.133084e-08 2.147569e-06))
118           	((-2.612636e-03 9.389256e-05 -7.162297e-05) (8.963063e-03 -6.043818e-05 -3.212063e-05)) ((2.698026e-08 -2.039493e-06 -2.660805e-06) (5.548888e-09 -3.285660e-08 2.134315e-06))
119           	((-2.584850e-03 9.392366e-05 -7.171700e-05) (8.901045e-03 -6.002213e-05 -3.179935e-05)) ((2.685279e-08 -2.037328e-06 -2.638844e-06) (5.357812e-09 -3.438812e-08 2.121322e-06))
120           	((-2.557626e-03 9.391482e-05 -7.184445e-05) (8.840132e-03 -5.961725e-05 -3.148156e-05)) ((2.673754e-08 -2.035712e-06 -2.618517e-06) (5.169127e-09 -3.587004e-08 2.108578e-06))
121           	((-2.531202e-03 9.369286e-05 -7.198498e-05) (8.780332e-03 -5.921803e-05 -3.116421e-05)) ((2.664646e-08 -2.034808e-06 -2.601972e-06) (4.981312e-09 -3.727530e-08 2.096075e-06))
122           	((-2.504808e-03 9.366068e-05 -7.212823e-05) (8.721601e-03 -5.882307e-05 -3.084533e-05)) ((2.653099e-08 -2.034634e-06 -2.581527e-06) (4.793595e-09 -3.859370e-08 2.083772e-06))
123           	((-2.478866e-03 9.363624e-05 -7.227968e-05) (8.663883e-03 -5.843352e-05 -3.052651e-05)) ((2.641373e-08 -2.034783e-06 -2.561636e-06) (4.606420e-09 -3.981269e-08 2.071628e-06))
124           	((-2.453351e-03 9.364533e-05 -7.243386e-05) (8.607169e-03 -5.805060e-05 -3.020957e-05)) ((2.629100e-08 -2.035270e-06 -2.542329e-06) (4.420706e-09 -4.096210e-08 2.059678e-06))
125           	((-2.428238e-03 9.368923e-05 -7.256536e-05) (8.551438e-03 -5.767566e-05 -2.989536e-05)) ((2.615359e-08 -2.035976e-06 -2.523560e-06) (4.237118e-09 -4.205151e-08 2.047938e-06))
126           	((-2.403529e-03 9.376336e-05 -7.269419e-05) (8.496667e-03 -5.730974e-05 -2.958560e-05)) ((2.601005e-08 -2.036824e-06 -2.505630e-06) (4.056436e-09 -4.309574e-08 2.036421e-06))
127           	((-2.379196e-03 9.385528e-05 -7.281483e-05) (8.442834e-03 -5.695289e-05 -2.928093e-05)) ((2.585831e-08 -2.037808e-06 -2.487769e-06) (3.879006e-09 -4.410386e-08 2.025126e-06))
128           	((-2.355172e-03 9.399930e-05 -7.291828e-05) (8.389912e-03 -5.660499e-05 -2.898116e-05)) ((2.569198e-08 -2.039055e-06 -2.469894e-06) (3.704847e-09 -4.507352e-08 2.014042e-06))
129           	((-2.331438e-03 9.418635e-05 -7.299671e-05) (8.337873e-03 -5.626529e-05 -2.868664e-05)) ((2.550875e-08 -2.040460e-06 -2.451895e-06) (3.533977e-09 -4.600561e-08 2.003150e-06))
130           	((-2.308085e-03 9.460785e-05 -7.271298e-05) (8.286690e-03 -5.593443e-05 -2.840552e-05)) ((2.515436e-08 -2.039166e-06 -2.438605e-06) (3.370321e-09 -4.698131e-08 1.992465e-06))
131           	((-2.284905e-03 9.490908e-05 -7.272847e-05) (8.236340e-03 -5.562145e-05 -2.812565e-05)) ((2.494005e-08 -2.040123e-06 -2.419608e-06) (3.208254e-09 -4.787372e-08 1.982069e-06))
132           	((-2.262140e-03 9.495075e-05 -7.293573e-05) (8.186826e-03 -5.531277e-05 -2.784012e-05)) ((2.482020e-08 -2.043815e-06 -2.400365e-06) (3.044021e-09 -4.862313e-08 1.971819e-06))
133           	((-2.239685e-03 9.495887e-05 -7.321704e-05) (8.138111e-03 -5.500786e-05 -2.756675e-05)) ((2.472958e-08 -2.048474e-06 -2.380729e-06) (2.886476e-09 -4.940886e-08 1.961720e-06))
134           	((-2.217418e-03 9.514821e-05 -7.347454e-05) (8.090168e-03 -5.468839e-05 -2.728604e-05)) ((2.461002e-08 -2.052880e-06 -2.360901e-06) (2.725709e-09 -5.002707e-08 1.951557e-06))
135           	((-2.195581e-03 9.534705e-05 -7.362436e-05) (8.042999e-03 -5.436221e-05 -2.699878e-05)) ((2.444950e-08 -2.056533e-06 -2.343888e-06) (2.562095e-09 -5.048051e-08 1.941431e-06))
136           	((-2.174097e-03 9.560551e-05 -7.354112e-05) (7.996597e-03 -5.404327e-05 -2.672063e-05)) ((2.419174e-08 -2.058594e-06 -2.328890e-06) (2.403399e-09 -5.093661e-08 1.931512e-06))
137           	((-2.152776e-03 9.586412e-05 -7.342597e-05) (7.950925e-03 -5.374151e-05 -2.645155e-05)) ((2.392580e-08 -2.060567e-06 -2.312620e-06) (2.250025e-09 -5.139802e-08 1.921883e-06))
138           	((-2.131892e-03 9.603268e-05 -7.328168e-05) (7.905961e-03 -5.345803e-05 -2.619394e-05)) ((2.366112e-08 -2.062538e-06 -2.298392e-06) (2.103113e-09 -5.188202e-08 1.912559e-06))
139           	((-2.111135e-03 9.631350e-05 -7.314699e-05) (7.861684e-03 -5.319004e-05 -2.595341e-05)) ((2.339114e-08 -2.064502e-06 -2.282670e-06) (1.965231e-09 -5.245939e-08 1.903501e-06))
140           	((-2.091007e-03 9.645575e-05 -7.301819e-05) (7.818084e-03 -5.292634e-05 -2.571782e-05)) ((2.313806e-08 -2.066915e-06 -2.270055e-06) (1.830274e-09 -5.299701e-08 1.894591e-06))
141           	((-2.070535e-03 9.687542e-05 -7.258891e-05) (7.775136e-03 -5.266122e-05 -2.548464e-05)) ((2.274357e-08 -2.066565e-06 -2.255064e-06) (1.696973e-09 -5.348301e-08 1.885765e-06))
142           	((-2.050709e-03 9.694512e-05 -7.245375e-05) (7.732821e-03 -5.240070e-05 -2.524845e-05)) ((2.249867e-08 -2.068803e-06 -2.239530e-06) (1.562252e-09 -5.383355e-08 1.877066e-06))
143           	((-2.030898e-03 9.697758e-05 -7.241000e-05) (7.691182e-03 -5.213336e-05 -2.500059e-05)) ((2.229347e-08 -2.072074e-06 -2.222566e-06) (1.422214e-09 -5.398835e-08 1.868422e-06))
144           	((-2.011253e-03 9.704602e-05 -7.238688e-05) (7.650161e-03 -5.187089e-05 -2.476650e-05)) ((2.209180e-08 -2.075756e-06 -2.204870e-06) (1.289063e-09 -5.420038e-08 1.859920e-06))
145           	((-1.991862e-03 9.713961e-05 -7.233414e-05) (7.609731e-03 -5.160366e-05 -2.453301e-05)) ((2.187766e-08 -2.079500e-06 -2.187695e-06) (1.156323e-09 -5.432984e-08 1.851446e-06))
146           	((-1.972754e-03 9.730291e-05 -7.220035e-05) (7.569899e-03 -5.133503e-05 -2.429353e-05)) ((2.162701e-08 -2.082709e-06 -2.171864e-06) (1.021058e-09 -5.431028e-08 1.843049e-06))
147           	((-1.953932e-03 9.749345e-05 -7.200986e-05) (7.530656e-03 -5.107327e-05 -2.406285e-05)) ((2.135062e-08 -2.085616e-06 -2.157376e-06) (8.903598e-10 -5.429692e-08 1.834821e-06))
148           	((-1.935370e-03 9.768547e-05 -7.174922e-05) (7.491989e-03 -5.082165e-05 -2.384226e-05)) ((2.104880e-08 -2.088023e-06 -2.143944e-06) (7.649330e-10 -5.430361e-08 1.826802e-06))
149           	((-1.917043e-03 9.785360e-05 -7.145315e-05) (7.453883e-03 -5.058297e-05 -2.363383e-05)) ((2.073890e-08 -2.090233e-06 -2.131206e-06) (6.459577e-10 -5.435124e-08 1.819026e-06))
150           	((-1.898931e-03 9.798523e-05 -7.113949e-05) (7.416321e-03 -5.035397e-05 -2.343735e-05)) ((2.042949e-08 -2.092322e-06 -2.118689e-06) (5.331824e-10 -5.443722e-08 1.811455e-06))
151           	((-1.881009e-03 9.805307e-05 -7.082738e-05) (7.379291e-03 -5.012835e-05 -2.324648e-05)) ((2.013293e-08 -2.094471e-06 -2.105850e-06) (4.233250e-10 -5.449458e-08 1.804022e-06))
152           	((-1.863272e-03 9.806489e-05 -7.053128e-05) (7.342782e-03 -4.990109e-05 -2.305689e-05)) ((1.984826e-08 -2.096815e-06 -2.092611e-06) (3.142328e-10 -5.447719e-08 1.796672e-06))
153           	((-1.845712e-03 9.803375e-05 -7.024832e-05) (7.306787e-03 -4.967023e-05 -2.286695e-05)) ((1.957443e-08 -2.099382e-06 -2.079171e-06) (2.049783e-10 -5.436829e-08 1.789383e-06))
154           	((-1.828310e-03 9.798585e-05 -6.995428e-05) (7.271296e-03 -4.943633e-05 -2.267672e-05)) ((1.929941e-08 -2.101976e-06 -2.065719e-06) (9.551371e-11 -5.416865e-08 1.782159e-06))
155           	((-1.811095e-03 9.793122e-05 -6.965039e-05) (7.236297e-03 -4.920244e-05 -2.248803e-05)) ((1.902251e-08 -2.104600e-06 -2.052689e-06) (-1.307285e-11 -5.389741e-08 1.775032e-06))
156           	((-1.794008e-03 9.795880e-05 -6.933042e-05) (7.201779e-03 -4.897152e-05 -2.230364e-05)) ((1.873428e-08 -2.106549e-06 -2.039420e-06) (-1.194944e-10 -5.358476e-08 1.768024e-06))