# Region type : patch out
# Faces  :    220
# Area   :    1.250000e-07
# Time        	areaAverage(p)
0             	0.000000e+00
1             	0.000000e+00
2             	0.000000e+00
3             	0.000000e+00
4             	-8.656854e-02
5             	-8.652613e-02
6             	-7.111725e-02
7             	-5.479499e-02
8             	-5.065888e-02
9             	-3.832493e-02
10            	-2.704127e-02
11            	-1.893661e-02
12            	-1.325563e-02
13            	-9.278940e-03
14            	-6.495258e-03
15            	-4.546681e-03
16            	-3.182676e-03
17            	-2.427668e-03
18            	-1.700415e-03
19            	-1.191298e-03
20            	-8.348079e-04
21            	-5.853401e-04
22            	-4.097380e-04
23            	-2.868166e-04
24            	-2.007716e-04
25            	-1.405401e-04
26            	-9.837810e-05
27            	-6.886467e-05
28            	-4.820527e-05
29            	-3.374369e-05
30            	-2.362058e-05
31            	-1.653441e-05
32            	-1.157409e-05
33            	-8.101860e-06
34            	-5.671302e-06
35            	-3.969911e-06
36            	-2.778938e-06
37            	-1.945257e-06
38            	-1.361680e-06
39            	-9.531757e-07
40            	-6.672230e-07
41            	-4.670561e-07
42            	-3.269393e-07
43            	-2.288575e-07
44            	-1.602002e-07
45            	-1.121402e-07
46            	-7.849812e-08
47            	-5.494868e-08
48            	-3.846408e-08
49            	-2.692485e-08
50            	-1.884740e-08
51            	-1.319318e-08
52            	-9.235225e-09
53            	-6.464658e-09
54            	-4.525260e-09
55            	-3.167682e-09
56            	-2.217378e-09
57            	-1.552164e-09
58            	-1.086515e-09
59            	-7.605605e-10
60            	-5.323923e-10
61            	-3.726746e-10
62            	-2.608722e-10
63            	-1.826106e-10
64            	-1.278274e-10
65            	-8.947918e-11
66            	-6.263543e-11
67            	-4.384480e-11
68            	-3.069136e-11
69            	-2.148395e-11
70            	-1.503877e-11
71            	-1.052714e-11
72            	-7.368995e-12
73            	-5.158297e-12
74            	-3.610808e-12
75            	-2.527565e-12
76            	-1.769296e-12
77            	-1.238507e-12
78            	-8.669549e-13
79            	-6.068685e-13
80            	-4.248079e-13
81            	-2.973655e-13
82            	-2.081559e-13
83            	-1.457091e-13
84            	-1.019964e-13
85            	-7.139747e-14
86            	-4.997823e-14
87            	-3.498476e-14
88            	-2.448933e-14
89            	-1.714253e-14
90            	-1.199977e-14
91            	-8.399841e-15
92            	-5.879888e-15
93            	-4.115922e-15
94            	-2.881145e-15
95            	-2.016802e-15
96            	-1.411761e-15
97            	-9.882328e-16
98            	-6.917630e-16
99            	-4.842341e-16
100           	-3.389639e-16
101           	-2.372747e-16
102           	-1.660923e-16
103           	-1.162646e-16
104           	-8.138522e-17
105           	-5.696966e-17
106           	-3.987876e-17
107           	-2.791513e-17
108           	-1.954059e-17
109           	-1.367841e-17
110           	-9.574890e-18
111           	-6.702423e-18
112           	-4.691696e-18
113           	-3.284187e-18
114           	-2.298931e-18
115           	-1.609252e-18
116           	-1.126476e-18
117           	-7.885334e-19
118           	-5.519734e-19
119           	-3.863814e-19
120           	-2.704670e-19
121           	-1.893269e-19
122           	-1.325288e-19
123           	-9.277016e-20
124           	-6.493911e-20
125           	-4.545738e-20
126           	-3.182017e-20
127           	-2.227412e-20
128           	-1.559188e-20
129           	-1.091432e-20
130           	-7.640022e-21
131           	-5.348015e-21
132           	-3.743611e-21
133           	-2.620528e-21
134           	-1.834369e-21
135           	-1.284058e-21
136           	-8.988409e-22
137           	-6.291887e-22
138           	-4.404321e-22
139           	-3.083024e-22
140           	-2.158117e-22
141           	-1.510682e-22
142           	-1.057477e-22
143           	-7.402342e-23
144           	-5.181639e-23
145           	-3.627147e-23
146           	-2.539003e-23
147           	-1.777302e-23
148           	-1.244112e-23
149           	-8.708781e-24
150           	-6.096147e-24
151           	-4.267303e-24
152           	-2.987112e-24
153           	-2.090978e-24
154           	-1.463685e-24
155           	-1.024579e-24
156           	-7.172056e-25
157           	-5.020439e-25
158           	-3.514307e-25
159           	-2.460015e-25
160           	-1.722011e-25
161           	-1.205407e-25
162           	-8.437852e-26
163           	-5.906496e-26
164           	-4.134547e-26
165           	-2.894183e-26
166           	-2.025928e-26
167           	-1.418150e-26
168           	-9.927048e-27
169           	-6.948934e-27
170           	-4.864254e-27
171           	-3.404977e-27
172           	-2.383484e-27
173           	-1.668439e-27
174           	-1.167907e-27
175           	-8.175351e-28
176           	-5.722746e-28
177           	-4.005922e-28
178           	-2.804145e-28
179           	-1.962902e-28
180           	-1.374031e-28
181           	-9.618219e-29
182           	-6.732753e-29
183           	-4.712927e-29
184           	-3.299049e-29
185           	-2.309334e-29
186           	-1.616534e-29
187           	-1.131574e-29
188           	-7.921017e-30
189           	-5.544712e-30
190           	-3.881298e-30
191           	-2.716909e-30
192           	-1.901836e-30
193           	-1.331285e-30
194           	-9.318997e-31
195           	-6.523298e-31
196           	-4.566308e-31
197           	-3.196416e-31
198           	-2.237491e-31
199           	-1.566244e-31
200           	-1.096371e-31
201           	-7.674595e-32
202           	-5.372216e-32
203           	-3.760551e-32
204           	-2.632386e-32
205           	-1.842670e-32
206           	-1.289869e-32
207           	-9.029084e-33
208           	-6.320359e-33
209           	-4.424251e-33
210           	-3.096976e-33
211           	-2.167883e-33
212           	-1.517518e-33
213           	-1.062263e-33
214           	-7.435839e-34
215           	-5.205087e-34
216           	-3.643561e-34
217           	-2.550493e-34
218           	-1.785345e-34
219           	-1.249741e-34
220           	-8.748190e-35
221           	-6.123733e-35
222           	-4.286613e-35
223           	-3.000629e-35
224           	-2.100440e-35
225           	-1.470308e-35
226           	-1.029216e-35
227           	-7.204511e-36
228           	-5.043157e-36
229           	-3.530210e-36
230           	-2.471147e-36
231           	-1.729803e-36
232           	-1.210862e-36
233           	-8.476035e-37
234           	-5.933224e-37
235           	-4.153257e-37
236           	-2.907280e-37
237           	-2.035096e-37
238           	-1.424567e-37
239           	-9.971970e-38
240           	-6.980379e-38
241           	-4.886265e-38
242           	-3.420386e-38
243           	-2.394270e-38
244           	-1.675989e-38
245           	-1.173192e-38
246           	-8.212346e-39
247           	-5.748642e-39
248           	-4.024050e-39
249           	-2.816835e-39
250           	-1.971784e-39
251           	-1.380249e-39
252           	-9.661743e-40
253           	-6.763220e-40
254           	-4.734254e-40
255           	-3.313978e-40
256           	-2.319785e-40
257           	-1.623849e-40
258           	-1.136694e-40
259           	-7.956861e-41
260           	-5.569803e-41
261           	-3.898862e-41
262           	-2.729203e-41
263           	-1.910442e-41
264           	-1.337310e-41
265           	-9.361167e-42
266           	-6.552817e-42
267           	-4.586972e-42
268           	-3.210880e-42
269           	-2.247616e-42
270           	-1.573331e-42
271           	-1.101332e-42
272           	-7.709324e-43
273           	-5.396527e-43
274           	-3.777569e-43
275           	-2.644298e-43
276           	-1.851009e-43
277           	-1.295706e-43
278           	-9.069942e-44
279           	-6.348960e-44
280           	-4.444272e-44
281           	-3.110990e-44
282           	-2.177693e-44
283           	-1.524385e-44
284           	-1.067070e-44
285           	-7.469488e-45
286           	-5.228641e-45
287           	-3.660049e-45
288           	-2.562034e-45
289           	-1.793424e-45
290           	-1.255397e-45
291           	-8.787777e-46
292           	-6.151444e-46
293           	-4.306011e-46
294           	-3.014208e-46
295           	-2.109945e-46
296           	-1.476962e-46
297           	-1.033873e-46
298           	-7.237113e-47
299           	-5.065979e-47
300           	-3.546185e-47
301           	-2.482330e-47
302           	-1.737631e-47
303           	-1.216342e-47
304           	-8.514391e-48
305           	-5.960073e-48
306           	-4.172051e-48
307           	-2.920436e-48
308           	-2.044305e-48
309           	-1.431014e-48
310           	-1.001710e-48
311           	-7.011967e-49
312           	-4.908377e-49
313           	-3.435864e-49
314           	-2.405105e-49
315           	-1.683573e-49
316           	-1.178501e-49
317           	-8.249509e-50
318           	-5.774656e-50
319           	-4.042259e-50
320           	-2.829581e-50
321           	-1.980707e-50
322           	-1.386495e-50
323           	-9.705465e-51
324           	-6.793825e-51
325           	-4.755678e-51
326           	-3.328974e-51
327           	-2.330282e-51
328           	-1.631197e-51
329           	-1.141838e-51
330           	-7.992867e-52
331           	-5.595007e-52
332           	-3.916505e-52
333           	-2.741554e-52
334           	-1.919087e-52
335           	-1.343361e-52
336           	-9.403529e-53
337           	-6.582470e-53
338           	-4.607729e-53
339           	-3.225410e-53
340           	-2.257787e-53
341           	-1.580451e-53
342           	-1.106316e-53
343           	-7.744210e-54
344           	-5.420947e-54
345           	-3.794663e-54
346           	-2.656264e-54
347           	-1.859385e-54
348           	-1.301569e-54
349           	-9.110986e-55
350           	-6.377690e-55
351           	-4.464383e-55
352           	-3.125068e-55
353           	-2.187548e-55
354           	-1.531283e-55
355           	-1.071898e-55
356           	-7.503289e-56
357           	-5.252302e-56
358           	-3.676611e-56
359           	-2.573628e-56
360           	-1.801540e-56
361           	-1.261078e-56
362           	-8.827544e-57
363           	-6.179281e-57
364           	-4.325497e-57
365           	-3.027848e-57
366           	-2.119493e-57
367           	-1.483645e-57
368           	-1.038552e-57
369           	-7.269862e-58
370           	-5.088903e-58
371           	-3.562232e-58
372           	-2.493563e-58
373           	-1.745494e-58
374           	-1.221846e-58
375           	-8.552920e-59
376           	-5.987044e-59
377           	-4.190931e-59
378           	-2.933652e-59
379           	-2.053556e-59
380           	-1.437489e-59
381           	-1.006242e-59
382           	-7.043697e-60
383           	-4.930588e-60
384           	-3.451412e-60
385           	-2.415988e-60
386           	-1.691192e-60
387           	-1.183834e-60
388           	-8.286840e-61
389           	-5.800788e-61
390           	-4.060551e-61
391           	-2.842386e-61
392           	-1.989670e-61
393           	-1.392769e-61
394           	-9.749384e-62
395           	-6.824569e-62
396           	-4.777198e-62
397           	-3.344039e-62
398           	-2.340827e-62
399           	-1.638579e-62
400           	-1.147005e-62
401           	-8.029037e-63
402           	-5.620326e-63
403           	-3.934228e-63
404           	-2.753960e-63
405           	-1.927772e-63
406           	-1.349440e-63
407           	-9.446081e-64
408           	-6.612257e-64
409           	-4.628580e-64
410           	-3.240006e-64
411           	-2.268004e-64
412           	-1.587603e-64
413           	-1.111322e-64
414           	-7.779254e-65
415           	-5.445478e-65
416           	-3.811835e-65
417           	-2.668284e-65
418           	-1.867799e-65
419           	-1.307459e-65
420           	-9.152215e-66
421           	-6.406550e-66
422           	-4.484585e-66
423           	-3.139210e-66
424           	-2.197447e-66
425           	-1.538213e-66
426           	-1.076749e-66
427           	-7.537243e-67
428           	-5.276070e-67
429           	-3.693249e-67
430           	-2.585274e-67
431           	-1.809692e-67
432           	-1.266784e-67
433           	-8.867490e-68
434           	-6.207243e-68
435           	-4.345070e-68
436           	-3.041549e-68
437           	-2.129084e-68
438           	-1.490359e-68
439           	-1.043251e-68
440           	-7.302760e-69
441           	-5.111932e-69
442           	-3.578352e-69
443           	-2.504847e-69
444           	-1.753393e-69
445           	-1.227375e-69
446           	-8.591624e-70
447           	-6.014137e-70
448           	-4.209896e-70
449           	-2.946927e-70
450           	-2.062849e-70
451           	-1.443994e-70
452           	-1.010796e-70
453           	-7.075572e-71
454           	-4.952900e-71
455           	-3.467030e-71
456           	-2.426921e-71
457           	-1.698845e-71
458           	-1.189191e-71
459           	-8.324339e-72
460           	-5.827037e-72
461           	-4.078926e-72
462           	-2.855248e-72
463           	-1.998674e-72
464           	-1.399072e-72
465           	-9.793502e-73
466           	-6.855451e-73
467           	-4.798816e-73
468           	-3.359171e-73
469           	-2.351420e-73
470           	-1.645994e-73
471           	-1.152196e-73
472           	-8.065370e-74
473           	-5.645759e-74
474           	-3.952031e-74
475           	-2.766422e-74
476           	-1.936495e-74
477           	-1.355547e-74
478           	-9.488827e-75
479           	-6.642179e-75
480           	-4.649525e-75
481           	-3.254668e-75
482           	-2.278267e-75
483           	-1.594787e-75
484           	-1.116351e-75
485           	-7.814457e-76
486           	-5.470120e-76
487           	-3.829084e-76
488           	-2.680359e-76
489           	-1.876251e-76
490           	-1.313376e-76
491           	-9.193631e-77
492           	-6.435541e-77
493           	-4.504879e-77
494           	-3.153415e-77
495           	-2.207391e-77
496           	-1.545173e-77
497           	-1.081621e-77
498           	-7.571350e-78
499           	-5.299945e-78
500           	-3.709962e-78
501           	-2.596973e-78
502           	-1.817881e-78
503           	-1.272517e-78
504           	-8.907618e-79
505           	-6.235332e-79
506           	-4.364733e-79
507           	-3.055313e-79
508           	-2.138719e-79
509           	-1.497103e-79
510           	-1.047972e-79
511           	-7.335806e-80
512           	-5.135064e-80
513           	-3.594545e-80
514           	-2.516182e-80
515           	-1.761327e-80
516           	-1.232929e-80
517           	-8.630503e-81
518           	-6.041352e-81
519           	-4.228946e-81
520           	-2.960262e-81
521           	-2.072184e-81
522           	-1.450529e-81
523           	-1.015370e-81
524           	-7.107590e-82
525           	-4.975313e-82
526           	-3.482719e-82
527           	-2.437903e-82
528           	-1.706532e-82
529           	-1.194573e-82
530           	-8.362009e-83
531           	-5.853406e-83
532           	-4.097384e-83
533           	-2.868169e-83
534           	-2.007718e-83
535           	-1.405403e-83
536           	-9.837820e-84
537           	-6.886474e-84
538           	-4.820532e-84
539           	-3.374372e-84
540           	-2.362060e-84
541           	-1.653442e-84
542           	-1.157410e-84
543           	-8.101867e-85
544           	-5.671307e-85
545           	-3.969915e-85
546           	-2.778941e-85
547           	-1.945258e-85
548           	-1.361681e-85
549           	-9.531766e-86
550           	-6.672236e-86
551           	-4.670565e-86
552           	-3.269396e-86
553           	-2.288577e-86
554           	-1.602004e-86
555           	-1.121403e-86
556           	-7.849819e-87
557           	-5.494873e-87
558           	-3.846411e-87
559           	-2.692488e-87
560           	-1.884742e-87
561           	-1.319319e-87
562           	-9.235234e-88
563           	-6.464664e-88
564           	-4.525265e-88
565           	-3.167685e-88
566           	-2.217380e-88
567           	-1.552166e-88
568           	-1.086516e-88
569           	-7.605612e-89
570           	-5.323928e-89
571           	-3.726750e-89
572           	-2.608725e-89
573           	-1.826107e-89
574           	-1.278275e-89
575           	-8.947927e-90
576           	-6.263549e-90
577           	-4.384484e-90
578           	-3.069139e-90
579           	-2.148397e-90
580           	-1.503878e-90
581           	-1.052715e-90
582           	-7.369002e-91
583           	-5.158302e-91
584           	-3.610811e-91
585           	-2.527568e-91
586           	-1.769297e-91
587           	-1.238508e-91
588           	-8.669557e-92
589           	-6.068690e-92
590           	-4.248083e-92
591           	-2.973658e-92
592           	-2.081561e-92
593           	-1.457093e-92
594           	-1.019965e-92
595           	-7.139753e-93
596           	-4.997827e-93
597           	-3.498479e-93
598           	-2.448935e-93
599           	-1.714255e-93
600           	-1.199978e-93
601           	-8.399848e-94
602           	-5.879894e-94
603           	-4.115926e-94
604           	-2.881148e-94
605           	-2.016804e-94
606           	-1.411763e-94
607           	-9.882338e-95
608           	-6.917636e-95
609           	-4.842345e-95
610           	-3.389642e-95
611           	-2.372749e-95
612           	-1.660924e-95
613           	-1.162647e-95
614           	-8.138530e-96
615           	-5.696971e-96
616           	-3.987880e-96
617           	-2.791516e-96
618           	-1.954061e-96
619           	-1.367843e-96
620           	-9.574899e-97
621           	-6.702429e-97
622           	-4.691701e-97
623           	-3.284190e-97
624           	-2.298933e-97
625           	-1.609253e-97
626           	-1.126477e-97
627           	-7.885341e-98
628           	-5.519739e-98
629           	-3.863817e-98
630           	-2.704672e-98
631           	-1.893270e-98
632           	-1.325289e-98
633           	-9.277025e-99
634           	-6.493918e-99
635           	-4.545742e-99
636           	-3.182020e-99
637           	-2.227414e-99
638           	-1.559190e-99
639           	-1.091433e-99
640           	-7.640029e-100
641           	-5.348020e-100
642           	-3.743614e-100
643           	-2.620530e-100
644           	-1.834371e-100
645           	-1.284060e-100
646           	-8.988418e-101
647           	-6.291892e-101
648           	-4.404325e-101
649           	-3.083027e-101
650           	-2.158119e-101
651           	-1.510683e-101
652           	-1.057478e-101
653           	-7.402349e-102
654           	-5.181644e-102
655           	-3.627151e-102
656           	-2.539006e-102
657           	-1.777304e-102
658           	-1.244113e-102
659           	-8.708789e-103
660           	-6.096152e-103
661           	-4.267307e-103
662           	-2.987115e-103
663           	-2.090980e-103
664           	-1.463686e-103
665           	-1.024580e-103
666           	-7.172062e-104
667           	-5.020444e-104
668           	-3.514311e-104
669           	-2.460017e-104
670           	-1.722012e-104
671           	-1.205409e-104
672           	-8.437860e-105
673           	-5.906502e-105
674           	-4.134551e-105
675           	-2.894186e-105
676           	-2.025930e-105
677           	-1.418151e-105
678           	-9.927057e-106
679           	-6.948940e-106
680           	-4.864258e-106
681           	-3.404981e-106
682           	-2.383486e-106
683           	-1.668441e-106
684           	-1.167908e-106
685           	-8.175359e-107
686           	-5.722751e-107
687           	-4.005926e-107
688           	-2.804148e-107
689           	-1.962904e-107
690           	-1.374033e-107
691           	-9.618228e-108
692           	-6.732759e-108
693           	-4.712932e-108
694           	-3.299052e-108
695           	-2.309336e-108
696           	-1.616536e-108
697           	-1.131575e-108
698           	-7.921024e-109
699           	-5.544717e-109
700           	-3.881302e-109
701           	-2.716911e-109
702           	-1.901838e-109
703           	-1.331287e-109
704           	-9.319006e-110
705           	-6.523304e-110
706           	-4.566313e-110
707           	-3.196419e-110
708           	-2.237493e-110
709           	-1.566245e-110
710           	-1.096372e-110
711           	-7.674602e-111
712           	-5.372221e-111
713           	-3.760555e-111
714           	-2.632388e-111
715           	-1.842672e-111
716           	-1.289870e-111
717           	-9.029092e-112
718           	-6.320365e-112
719           	-4.424255e-112
720           	-3.096979e-112
721           	-2.167885e-112
722           	-1.517520e-112
723           	-1.062264e-112
724           	-7.435846e-113
725           	-5.205092e-113
726           	-3.643564e-113
727           	-2.550495e-113
728           	-1.785347e-113
729           	-1.249743e-113
730           	-8.748198e-114
731           	-6.123739e-114
732           	-4.286617e-114
733           	-3.000632e-114
734           	-2.100442e-114
735           	-1.470310e-114
736           	-1.029217e-114
737           	-7.204517e-115
738           	-5.043162e-115
739           	-3.530214e-115
740           	-2.471149e-115
741           	-1.729805e-115
742           	-1.210863e-115
743           	-8.476043e-116
744           	-5.933230e-116
745           	-4.153261e-116
746           	-2.907283e-116
747           	-2.035098e-116
748           	-1.424568e-116
749           	-9.971979e-117
750           	-6.980386e-117
751           	-4.886270e-117
752           	-3.420389e-117
753           	-2.394272e-117
754           	-1.675991e-117
755           	-1.173193e-117
756           	-8.212354e-118
757           	-5.748648e-118
758           	-4.024053e-118
759           	-2.816837e-118
760           	-1.971786e-118
761           	-1.380250e-118
762           	-9.661752e-119
763           	-6.763227e-119
764           	-4.734259e-119
765           	-3.313981e-119
766           	-2.319787e-119
767           	-1.623851e-119
768           	-1.136695e-119
769           	-7.956868e-120
770           	-5.569808e-120
771           	-3.898865e-120
772           	-2.729206e-120
773           	-1.910444e-120
774           	-1.337311e-120
775           	-9.361176e-121
776           	-6.552823e-121
777           	-4.586976e-121
778           	-3.210883e-121
779           	-2.247618e-121
780           	-1.573333e-121
781           	-1.101333e-121
782           	-7.709331e-122
783           	-5.396532e-122
784           	-3.777572e-122
785           	-2.644301e-122
786           	-1.851010e-122
787           	-1.295707e-122
788           	-9.069951e-123
789           	-6.348966e-123
790           	-4.444276e-123
791           	-3.110993e-123
792           	-2.177695e-123
793           	-1.524387e-123
794           	-1.067071e-123
795           	-7.469495e-124
796           	-5.228646e-124
797           	-3.660052e-124
798           	-2.562037e-124
799           	-1.793426e-124
800           	-1.255398e-124
801           	-8.787786e-125
802           	-6.151450e-125
803           	-4.306015e-125
804           	-3.014210e-125
805           	-2.109947e-125
806           	-1.476963e-125
807           	-1.033874e-125
808           	-7.237119e-126
809           	-5.065984e-126
810           	-3.546188e-126
811           	-2.482332e-126
812           	-1.737632e-126
813           	-1.216343e-126
814           	-8.514399e-127
815           	-5.960079e-127
816           	-4.172055e-127
817           	-2.920439e-127
818           	-2.044307e-127
819           	-1.431015e-127
820           	-1.001710e-127
821           	-7.011973e-128
822           	-4.908381e-128
823           	-3.435867e-128
824           	-2.405107e-128
825           	-1.683575e-128
826           	-1.178502e-128
827           	-8.249516e-129
828           	-5.774662e-129
829           	-4.042263e-129
830           	-2.829584e-129
831           	-1.980709e-129
832           	-1.386496e-129
833           	-9.705474e-130
834           	-6.793832e-130
835           	-4.755682e-130
836           	-3.328977e-130
837           	-2.330284e-130
838           	-1.631199e-130
839           	-1.141839e-130
840           	-7.992875e-131
841           	-5.595012e-131
842           	-3.916509e-131
843           	-2.741556e-131
844           	-1.919089e-131
845           	-1.343362e-131
846           	-9.403537e-132
847           	-6.582476e-132
848           	-4.607733e-132
849           	-3.225413e-132
850           	-2.257789e-132
851           	-1.580453e-132
852           	-1.106317e-132
853           	-7.744217e-133
854           	-5.420952e-133
855           	-3.794667e-133
856           	-2.656267e-133
857           	-1.859387e-133
858           	-1.301571e-133
859           	-9.110994e-134
860           	-6.377696e-134
861           	-4.464387e-134
862           	-3.125071e-134
863           	-2.187550e-134
864           	-1.531285e-134
865           	-1.071899e-134
866           	-7.503296e-135
867           	-5.252307e-135
868           	-3.676615e-135
869           	-2.573630e-135
870           	-1.801541e-135
871           	-1.261079e-135
872           	-8.827552e-136
873           	-6.179287e-136
874           	-4.325501e-136
875           	-3.027850e-136
876           	-2.119495e-136
877           	-1.483647e-136
878           	-1.038553e-136
879           	-7.269869e-137
880           	-5.088908e-137
881           	-3.562236e-137
882           	-2.493565e-137
883           	-1.745496e-137
884           	-1.221847e-137
885           	-8.552928e-138
886           	-5.987050e-138
887           	-4.190935e-138
888           	-2.933654e-138
889           	-2.053558e-138
890           	-1.437491e-138
891           	-1.006243e-138
892           	-7.043704e-139
893           	-4.930593e-139
894           	-3.451415e-139
895           	-2.415990e-139
896           	-1.691193e-139
897           	-1.183835e-139
898           	-8.286847e-140
899           	-5.800793e-140
900           	-4.060555e-140
901           	-2.842389e-140
902           	-1.989672e-140
903           	-1.392770e-140
904           	-9.749393e-141
905           	-6.824575e-141
906           	-4.777203e-141
907           	-3.344042e-141
908           	-2.340829e-141
909           	-1.638580e-141
910           	-1.147006e-141
911           	-8.029044e-142
912           	-5.620331e-142
913           	-3.934232e-142
914           	-2.753962e-142
915           	-1.927774e-142
916           	-1.349441e-142
917           	-9.446090e-143
918           	-6.612263e-143
919           	-4.628584e-143
920           	-3.240009e-143
921           	-2.268006e-143
922           	-1.587604e-143
923           	-1.111323e-143
924           	-7.779262e-144
925           	-5.445483e-144
926           	-3.811838e-144
927           	-2.668287e-144
928           	-1.867801e-144
929           	-1.307460e-144
930           	-9.152223e-145
931           	-6.406556e-145
932           	-4.484590e-145
933           	-3.139213e-145
934           	-2.197449e-145
935           	-1.538214e-145
936           	-1.076750e-145
937           	-7.537250e-146
938           	-5.276075e-146
939           	-3.693252e-146
940           	-2.585277e-146
941           	-1.809694e-146
942           	-1.266786e-146
943           	-8.867499e-147
944           	-6.207249e-147
945           	-4.345074e-147
946           	-3.041552e-147
947           	-2.129086e-147
948           	-1.490361e-147
949           	-1.043252e-147
950           	-7.302767e-148
951           	-5.111937e-148
952           	-3.578356e-148
953           	-2.504849e-148
954           	-1.753394e-148
955           	-1.227376e-148
956           	-8.591632e-149
957           	-6.014142e-149
958           	-4.209900e-149
959           	-2.946930e-149
960           	-2.062851e-149
961           	-1.443996e-149
962           	-1.010797e-149
963           	-7.075578e-150
964           	-4.952905e-150
965           	-3.467033e-150
966           	-2.426923e-150
967           	-1.698846e-150
968           	-1.189192e-150
969           	-8.324347e-151
970           	-5.827043e-151
971           	-4.078930e-151
972           	-2.855251e-151
973           	-1.998676e-151
974           	-1.399073e-151
975           	-9.793511e-152
976           	-6.855458e-152
977           	-4.798820e-152
978           	-3.359174e-152
979           	-2.351422e-152
980           	-1.645995e-152
981           	-1.152197e-152
982           	-8.065377e-153
983           	-5.645764e-153
984           	-3.952035e-153
985           	-2.766424e-153
986           	-1.936497e-153
987           	-1.355548e-153
988           	-9.488836e-154
989           	-6.642185e-154
990           	-4.649530e-154
991           	-3.254671e-154
992           	-2.278270e-154
993           	-1.594789e-154
994           	-1.116352e-154
995           	-7.814464e-155
996           	-5.470125e-155
997           	-3.829088e-155
998           	-2.680361e-155
999           	-1.876253e-155
1000          	-1.313377e-155
1001          	-9.193639e-156
1002          	-6.435547e-156
1003          	-4.504883e-156
1004          	-3.153418e-156
1005          	-2.207393e-156
1006          	-1.545175e-156
1007          	-1.081622e-156
1008          	-7.571357e-157
1009          	-5.299950e-157
1010          	-3.709965e-157
1011          	-2.596976e-157
1012          	-1.817883e-157
1013          	-1.272518e-157
1014          	-8.907626e-158
1015          	-6.235338e-158
1016          	-4.364737e-158
1017          	-3.055316e-158