# Forces      
# CofR        : (0.000000e+00 0.000000e+00 0.000000e+00)
# Time        forces(pressure viscous)	moments(pressure viscous)
0             	((0.000000e+00 0.000000e+00 0.000000e+00) (0.000000e+00 0.000000e+00 0.000000e+00)) ((0.000000e+00 0.000000e+00 0.000000e+00) (0.000000e+00 0.000000e+00 0.000000e+00))
1             	((-4.513245e+00 1.425165e-01 1.013936e-02) (8.152196e-03 -7.375686e-05 -1.328131e-04)) ((-2.120847e-05 -6.651403e-04 -3.074012e-03) (5.934403e-08 -3.935429e-06 2.241014e-06))
2             	((-3.811679e+00 1.201241e-01 2.122382e-03) (1.735112e-01 -1.588875e-03 3.993786e-04)) ((-1.623380e-05 -3.906258e-04 -2.705151e-03) (9.481198e-09 5.948044e-06 4.464200e-05))
3             	((-1.919627e+00 5.941752e-02 -7.356790e-03) (2.060568e-01 -1.791321e-03 7.334652e-04)) ((-5.175689e-06 7.444722e-05 -1.420890e-03) (-3.607337e-08 3.889617e-06 5.329831e-05))
4             	((-9.055034e-02 1.285694e-03 -1.257838e-02) (1.616610e-01 -1.210365e-03 6.850641e-04)) ((4.488788e-06 3.946025e-04 -1.220804e-04) (-4.391293e-08 6.184738e-07 4.237661e-05))
5             	((1.192842e+00 -4.002070e-02 -1.052857e-02) (8.590288e-02 -4.839285e-04 1.931314e-04)) ((9.214590e-06 4.853830e-04 6.952620e-04) (-5.362125e-09 -1.225359e-07 2.475451e-05))
6             	((1.690181e+00 -5.381822e-02 -6.295671e-03) (2.172750e-02 1.083678e-04 -2.433332e-04)) ((9.599073e-06 4.115027e-04 1.036573e-03) (2.702739e-08 -6.049814e-07 9.432925e-06))
7             	((1.571627e+00 -4.934933e-02 -1.066452e-03) (-1.445579e-02 3.888132e-04 -3.440944e-04)) ((7.201861e-06 2.533618e-04 9.740025e-04) (1.250298e-08 -1.749897e-06 6.306910e-07))
8             	((1.073671e+00 -3.345604e-02 4.016849e-03) (-1.890740e-02 3.714292e-04 -1.678325e-04)) ((3.428641e-06 7.607148e-05 6.685232e-04) (-2.849275e-08 -3.124837e-06 -1.241633e-06))
9             	((4.465803e-01 -1.366694e-02 7.469824e-03) (-1.169910e-04 1.375009e-04 4.985727e-07)) ((-3.495132e-07 -6.856774e-05 2.850620e-04) (-3.970833e-08 -3.219068e-06 2.023378e-06))
10            	((-9.014654e-02 3.137572e-03 8.747080e-03) (2.620477e-02 -1.553529e-04 3.701103e-05)) ((-3.044041e-06 -1.509628e-04 -4.692105e-05) (-7.979386e-09 -1.838696e-06 7.262027e-06))
11            	((-4.219624e-01 1.331843e-02 8.054744e-03) (5.125249e-02 -4.204294e-04 -2.821334e-05)) ((-4.244446e-06 -1.703705e-04 -2.568237e-04) (4.523587e-08 2.301544e-07 1.251938e-05))
12            	((-5.273023e-01 1.645689e-02 6.058902e-03) (6.968072e-02 -6.039610e-04 -1.131493e-04)) ((-4.101955e-06 -1.431104e-04 -3.313115e-04) (9.034737e-08 2.040355e-06 1.651147e-05))
13            	((-4.553382e-01 1.454555e-02 3.652969e-03) (7.942705e-02 -6.940847e-04 -1.682216e-04)) ((-3.123074e-06 -9.306207e-05 -2.947600e-04) (1.127590e-07 3.118098e-06 1.862633e-05))
14            	((-2.850122e-01 9.358423e-03 1.333777e-03) (8.093837e-02 -7.014143e-04 -1.868256e-04)) ((-1.745697e-06 -3.861704e-05 -1.980528e-04) (1.131115e-07 3.417821e-06 1.886212e-05))
15            	((-9.690568e-02 3.669404e-03 -3.793576e-04) (7.639589e-02 -6.516454e-04 -1.806500e-04)) ((-4.647474e-07 4.302735e-06 -8.570312e-05) (9.953135e-08 3.167919e-06 1.766416e-05))
16            	((5.104584e-02 -8.574416e-04 -1.297720e-03) (6.875195e-02 -5.763169e-04 -1.635627e-04)) ((4.350846e-07 2.849235e-05 6.674099e-06) (8.081021e-08 2.663427e-06 1.569921e-05))
17            	((1.308246e-01 -3.349996e-03 -1.463908e-03) (6.078366e-02 -5.020947e-04 -1.457387e-04)) ((8.442204e-07 3.386617e-05 6.101036e-05) (6.365814e-08 2.140330e-06 1.363071e-05))
18            	((1.427094e-01 -3.858007e-03 -1.088325e-03) (5.442197e-02 -4.455168e-04 -1.321521e-04)) ((8.210293e-07 2.538037e-05 7.460017e-05) (5.163835e-08 1.749154e-06 1.194488e-05))
19            	((1.057430e-01 -2.911374e-03 -4.746597e-04) (5.048960e-02 -4.116652e-04 -1.246289e-04)) ((5.233196e-07 1.041342e-05 5.888984e-05) (4.567433e-08 1.546434e-06 1.086503e-05))
20            	((4.622456e-02 -1.333735e-03 1.926992e-04) (4.885104e-02 -3.972069e-04 -1.227359e-04)) ((1.139701e-07 -5.630346e-06 2.643243e-05) (4.472789e-08 1.513997e-06 1.037919e-05))
21            	((-1.176534e-02 2.535010e-04 7.007106e-04) (4.878060e-02 -3.948177e-04 -1.242518e-04)) ((-2.564110e-07 -1.775139e-05 -7.421639e-06) (4.666375e-08 1.589923e-06 1.032324e-05))
22            	((-5.243829e-02 1.402432e-03 9.714993e-04) (4.935725e-02 -3.966844e-04 -1.263633e-04)) ((-5.002642e-07 -2.408159e-05 -3.303832e-05) (4.918036e-08 1.698011e-06 1.046908e-05))
23            	((-6.980574e-02 1.920141e-03 9.974015e-04) (4.978173e-02 -3.964507e-04 -1.268396e-04)) ((-5.855233e-07 -2.467766e-05 -4.590613e-05) (5.054864e-08 1.776510e-06 1.061126e-05))
24            	((-6.648739e-02 1.901282e-03 8.351589e-04) (4.955787e-02 -3.906220e-04 -1.245814e-04)) ((-5.357187e-07 -2.107468e-05 -4.639646e-05) (4.993164e-08 1.791233e-06 1.061369e-05))
25            	((-4.990279e-02 1.498189e-03 5.821515e-04) (4.853413e-02 -3.784269e-04 -1.196412e-04)) ((-4.038782e-07 -1.558558e-05 -3.842764e-05) (4.733309e-08 1.735684e-06 1.042516e-05))
26            	((-2.872513e-02 9.193991e-04 3.168316e-04) (4.683580e-02 -3.609878e-04 -1.129143e-04)) ((-2.414929e-07 -1.004499e-05 -2.690220e-05) (4.338326e-08 1.623435e-06 1.006729e-05))
27            	((-1.028335e-02 4.059910e-04 9.890342e-05) (4.475025e-02 -3.407592e-04 -1.053424e-04)) ((-9.949998e-08 -5.737152e-06 -1.556048e-05) (3.881987e-08 1.479729e-06 9.605113e-06))
28            	((1.235052e-03 6.483568e-05 -2.232141e-05) (4.260032e-02 -3.205376e-04 -9.796083e-05)) ((-9.260395e-09 -3.477949e-06 -7.437308e-06) (3.442991e-08 1.327817e-06 9.115546e-06))
29            	((4.903359e-03 -6.846200e-05 -5.047629e-05) (4.064371e-02 -3.024283e-04 -9.126717e-05)) ((2.341615e-08 -3.114343e-06 -3.601783e-06) (3.062579e-08 1.190109e-06 8.664807e-06))
30            	((2.367697e-03 -5.039710e-05 -5.576202e-06) (3.901900e-02 -2.874254e-04 -8.608793e-05)) ((9.918194e-09 -4.129030e-06 -3.637512e-06) (2.783809e-08 1.074346e-06 8.291969e-06))
31            	((-3.663445e-03 7.888645e-05 7.607114e-05) (3.774504e-02 -2.755991e-04 -8.202505e-05)) ((-3.035511e-08 -5.761582e-06 -6.052432e-06) (2.582511e-08 9.893660e-07 8.005759e-06))
32            	((-1.026444e-02 2.340322e-04 1.635325e-04) (3.675293e-02 -2.663962e-04 -7.915254e-05)) ((-7.773080e-08 -7.383969e-06 -9.488043e-06) (2.448561e-08 9.289255e-07 7.791839e-06))
33            	((-1.531381e-02 3.572161e-04 2.318257e-04) (3.593077e-02 -2.588015e-04 -7.702455e-05)) ((-1.160401e-07 -8.548872e-06 -1.270773e-05) (2.349864e-08 8.871275e-07 7.624639e-06))
34            	((-1.781014e-02 4.177189e-04 2.671274e-04) (3.516833e-02 -2.518136e-04 -7.532492e-05)) ((-1.359772e-07 -9.060910e-06 -1.489754e-05) (2.262205e-08 8.550861e-07 7.476841e-06))
35            	((-1.777215e-02 4.176833e-04 2.691090e-04) (3.438563e-02 -2.447323e-04 -7.377597e-05)) ((-1.368617e-07 -8.957748e-06 -1.565351e-05) (2.168082e-08 8.251735e-07 7.326553e-06))
36            	((-1.597331e-02 3.816345e-04 2.435990e-04) (3.354619e-02 -2.372964e-04 -7.221829e-05)) ((-1.230322e-07 -8.400999e-06 -1.515558e-05) (2.060346e-08 7.924766e-07 7.161794e-06))
37            	((-1.332356e-02 3.163411e-04 2.033644e-04) (3.265133e-02 -2.295066e-04 -7.057873e-05)) ((-1.002379e-07 -7.615622e-06 -1.376002e-05) (1.939238e-08 7.544960e-07 6.980472e-06))
38            	((-1.077434e-02 2.496262e-04 1.626186e-04) (3.172764e-02 -2.215506e-04 -6.890476e-05)) ((-7.652535e-08 -6.850962e-06 -1.207663e-05) (1.812675e-08 7.118026e-07 6.788136e-06))
39            	((-8.936832e-03 1.982040e-04 1.312906e-04) (3.081328e-02 -2.137742e-04 -6.727974e-05)) ((-5.759796e-08 -6.270431e-06 -1.059119e-05) (1.689946e-08 6.667849e-07 6.594538e-06))
40            	((-8.038015e-03 1.700507e-04 1.144733e-04) (2.994257e-02 -2.064886e-04 -6.578531e-05)) ((-4.641710e-08 -5.945140e-06 -9.598984e-06) (1.578914e-08 6.224879e-07 6.409136e-06))
41            	((-7.950575e-03 1.600498e-04 1.122667e-04) (2.913650e-02 -1.998560e-04 -6.448408e-05)) ((-4.282848e-08 -5.864815e-06 -9.158389e-06) (1.484138e-08 5.816220e-07 6.238202e-06))
42            	((-8.380075e-03 1.644956e-04 1.179942e-04) (2.840046e-02 -1.938780e-04 -6.340531e-05)) ((-4.420301e-08 -5.914121e-06 -9.120579e-06) (1.406478e-08 5.459334e-07 6.083832e-06))
43            	((-8.987146e-03 1.768269e-04 1.275664e-04) (2.772770e-02 -1.884734e-04 -6.253776e-05)) ((-4.814729e-08 -6.024586e-06 -9.331838e-06) (1.343386e-08 5.158129e-07 5.944638e-06))
44            	((-9.488585e-03 1.879252e-04 1.374085e-04) (2.710433e-02 -1.835073e-04 -6.185443e-05)) ((-5.218099e-08 -6.136625e-06 -9.633551e-06) (1.291076e-08 4.907229e-07 5.817309e-06))
45            	((-9.716373e-03 1.955072e-04 1.437681e-04) (2.651471e-02 -1.788386e-04 -6.132535e-05)) ((-5.470368e-08 -6.187228e-06 -9.851793e-06) (1.245831e-08 4.694683e-07 5.697924e-06))
46            	((-9.647466e-03 1.970012e-04 1.456857e-04) (2.594602e-02 -1.743686e-04 -6.091571e-05)) ((-5.487672e-08 -6.169021e-06 -9.927897e-06) (1.204824e-08 4.506407e-07 5.583101e-06))
47            	((-9.328690e-03 1.899487e-04 1.430447e-04) (2.539044e-02 -1.700244e-04 -6.061496e-05)) ((-5.263496e-08 -6.078000e-06 -9.845894e-06) (1.167074e-08 4.328275e-07 5.470852e-06))
48            	((-8.876466e-03 1.784964e-04 1.369893e-04) (2.484520e-02 -1.657834e-04 -6.037921e-05)) ((-4.884332e-08 -5.937502e-06 -9.639198e-06) (1.131356e-08 4.154873e-07 5.360509e-06))
49            	((-8.408924e-03 1.669291e-04 1.293145e-04) (2.431180e-02 -1.616723e-04 -6.018669e-05)) ((-4.446540e-08 -5.773745e-06 -9.341400e-06) (1.097942e-08 3.983716e-07 5.252326e-06))
50            	((-8.013802e-03 1.569367e-04 1.218206e-04) (2.379390e-02 -1.577263e-04 -6.003217e-05)) ((-4.029515e-08 -5.614205e-06 -9.024944e-06) (1.067640e-08 3.814589e-07 5.147073e-06))
51            	((-7.731985e-03 1.494348e-04 1.157365e-04) (2.329530e-02 -1.539647e-04 -5.990845e-05)) ((-3.687534e-08 -5.478079e-06 -8.746443e-06) (1.040784e-08 3.650667e-07 5.045675e-06))
52            	((-7.563688e-03 1.448894e-04 1.119310e-04) (2.281863e-02 -1.503931e-04 -5.981200e-05)) ((-3.451510e-08 -5.377617e-06 -8.528660e-06) (1.017322e-08 3.496033e-07 4.948759e-06))
53            	((-7.473477e-03 1.426452e-04 1.101762e-04) (2.236454e-02 -1.470049e-04 -5.974322e-05)) ((-3.318042e-08 -5.310666e-06 -8.382705e-06) (9.969479e-09 3.353849e-07 4.856519e-06))
54            	((-7.423072e-03 1.413542e-04 1.100821e-04) (2.193205e-02 -1.437813e-04 -5.970651e-05)) ((-3.257137e-08 -5.271579e-06 -8.310755e-06) (9.793374e-09 3.225517e-07 4.768890e-06))
55            	((-7.373284e-03 1.409698e-04 1.104774e-04) (2.151903e-02 -1.407057e-04 -5.970446e-05)) ((-3.225947e-08 -5.241603e-06 -8.270792e-06) (9.640484e-09 3.110647e-07 4.685503e-06))
56            	((-7.296596e-03 1.396836e-04 1.106404e-04) (2.112279e-02 -1.377610e-04 -5.973897e-05)) ((-3.190330e-08 -5.209995e-06 -8.235011e-06) (9.506752e-09 3.007219e-07 4.605776e-06))
57            	((-7.186909e-03 1.374053e-04 1.103796e-04) (2.074092e-02 -1.349299e-04 -5.980655e-05)) ((-3.129091e-08 -5.173558e-06 -8.196990e-06) (9.389415e-09 2.912866e-07 4.529229e-06))
58            	((-7.050615e-03 1.346616e-04 1.091495e-04) (2.037172e-02 -1.322091e-04 -5.990127e-05)) ((-3.035136e-08 -5.126375e-06 -8.137072e-06) (9.285398e-09 2.825126e-07 4.455533e-06))
59            	((-6.896080e-03 1.313594e-04 1.069994e-04) (2.001413e-02 -1.295953e-04 -6.001453e-05)) ((-2.913899e-08 -5.067726e-06 -8.050292e-06) (9.193582e-09 2.742459e-07 4.384367e-06))
60            	((-6.738528e-03 1.277230e-04 1.044351e-04) (1.966766e-02 -1.270800e-04 -6.014067e-05)) ((-2.778922e-08 -5.003266e-06 -7.950762e-06) (9.113912e-09 2.663879e-07 4.315579e-06))
61            	((-6.589578e-03 1.241905e-04 1.018084e-04) (1.933227e-02 -1.246562e-04 -6.027105e-05)) ((-2.644812e-08 -4.937937e-06 -7.846098e-06) (9.044990e-09 2.589058e-07 4.249099e-06))
62            	((-6.456191e-03 1.211073e-04 9.940421e-05) (1.900801e-02 -1.223174e-04 -6.040165e-05)) ((-2.523061e-08 -4.875476e-06 -7.743522e-06) (8.985272e-09 2.517917e-07 4.184872e-06))
63            	((-6.340651e-03 1.186066e-04 9.728965e-05) (1.869493e-02 -1.200593e-04 -6.052883e-05)) ((-2.417914e-08 -4.819501e-06 -7.652457e-06) (8.933080e-09 2.450853e-07 4.122867e-06))
64            	((-6.238107e-03 1.162513e-04 9.556050e-05) (1.839282e-02 -1.178777e-04 -6.065301e-05)) ((-2.329393e-08 -4.770267e-06 -7.572921e-06) (8.887095e-09 2.388073e-07 4.063060e-06))
65            	((-6.143888e-03 1.139365e-04 9.412306e-05) (1.810123e-02 -1.157664e-04 -6.077554e-05)) ((-2.253796e-08 -4.726593e-06 -7.504585e-06) (8.846531e-09 2.329885e-07 4.005398e-06))
66            	((-6.053775e-03 1.116823e-04 9.281843e-05) (1.781959e-02 -1.137250e-04 -6.089942e-05)) ((-2.186041e-08 -4.685686e-06 -7.444822e-06) (8.810969e-09 2.276023e-07 3.949829e-06))
67            	((-5.964397e-03 1.096365e-04 9.143174e-05) (1.754730e-02 -1.117538e-04 -6.102406e-05)) ((-2.121247e-08 -4.644630e-06 -7.388520e-06) (8.779773e-09 2.226211e-07 3.896261e-06))
68            	((-5.874055e-03 1.077265e-04 8.982103e-05) (1.728376e-02 -1.098537e-04 -6.115003e-05)) ((-2.054631e-08 -4.602707e-06 -7.332223e-06) (8.752667e-09 2.179878e-07 3.844588e-06))
69            	((-5.782558e-03 1.058199e-04 8.802594e-05) (1.702843e-02 -1.080223e-04 -6.127440e-05)) ((-1.984913e-08 -4.559679e-06 -7.274703e-06) (8.729104e-09 2.136765e-07 3.794691e-06))
70            	((-5.690569e-03 1.038142e-04 8.614808e-05) (1.678088e-02 -1.062541e-04 -6.139703e-05)) ((-1.913013e-08 -4.515829e-06 -7.215882e-06) (8.708546e-09 2.096337e-07 3.746451e-06))
71            	((-5.599331e-03 1.016672e-04 8.424915e-05) (1.654075e-02 -1.045424e-04 -6.151532e-05)) ((-1.839845e-08 -4.472019e-06 -7.156357e-06) (8.690134e-09 2.058434e-07 3.699757e-06))
72            	((-5.510254e-03 9.943593e-05 8.238667e-05) (1.630775e-02 -1.028805e-04 -6.162965e-05)) ((-1.767307e-08 -4.428684e-06 -7.097182e-06) (8.673055e-09 2.022716e-07 3.654513e-06))
73            	((-5.424423e-03 9.714089e-05 8.051033e-05) (1.608165e-02 -1.012642e-04 -6.173697e-05)) ((-1.694579e-08 -4.386836e-06 -7.038593e-06) (8.656236e-09 1.989298e-07 3.610647e-06))
74            	((-5.342333e-03 9.489028e-05 7.866739e-05) (1.586224e-02 -9.969189e-05 -6.183725e-05)) ((-1.623852e-08 -4.346046e-06 -6.981580e-06) (8.638987e-09 1.958037e-07 3.568117e-06))
75            	((-5.263901e-03 9.274170e-05 7.684414e-05) (1.564930e-02 -9.816279e-05 -6.192928e-05)) ((-1.555483e-08 -4.306228e-06 -6.926606e-06) (8.620575e-09 1.928953e-07 3.526885e-06))
76            	((-5.188650e-03 9.072442e-05 7.504837e-05) (1.544259e-02 -9.667849e-05 -6.201480e-05)) ((-1.489881e-08 -4.266922e-06 -6.873828e-06) (8.600919e-09 1.901760e-07 3.486934e-06))
77            	((-5.115942e-03 8.883167e-05 7.324814e-05) (1.524188e-02 -9.523836e-05 -6.209298e-05)) ((-1.426282e-08 -4.228075e-06 -6.823043e-06) (8.579673e-09 1.876420e-07 3.448221e-06))
78            	((-5.045178e-03 8.700211e-05 7.137743e-05) (1.504692e-02 -9.384174e-05 -6.216532e-05)) ((-1.362817e-08 -4.190092e-06 -6.773514e-06) (8.556807e-09 1.852629e-07 3.410704e-06))
79            	((-4.975915e-03 8.520021e-05 6.945883e-05) (1.485744e-02 -9.248669e-05 -6.222990e-05)) ((-1.299295e-08 -4.152644e-06 -6.724869e-06) (8.532127e-09 1.830432e-07 3.374328e-06))
80            	((-4.907919e-03 8.340521e-05 6.753646e-05) (1.467322e-02 -9.117046e-05 -6.228830e-05)) ((-1.236145e-08 -4.115343e-06 -6.676945e-06) (8.505613e-09 1.809511e-07 3.339034e-06))
81            	((-4.841145e-03 8.160081e-05 6.561530e-05) (1.449404e-02 -8.989002e-05 -6.233903e-05)) ((-1.173091e-08 -4.078303e-06 -6.629642e-06) (8.476947e-09 1.789879e-07 3.304763e-06))
82            	((-4.775682e-03 7.979902e-05 6.372183e-05) (1.431969e-02 -8.864256e-05 -6.238347e-05)) ((-1.110647e-08 -4.041432e-06 -6.583105e-06) (8.445931e-09 1.771262e-07 3.271462e-06))
83            	((-4.711677e-03 7.797146e-05 6.177040e-05) (1.414999e-02 -8.742587e-05 -6.241946e-05)) ((-1.046910e-08 -4.005754e-06 -6.536988e-06) (8.412112e-09 1.753769e-07 3.239085e-06))
84            	((-4.649256e-03 7.614841e-05 5.982153e-05) (1.398477e-02 -8.623944e-05 -6.244761e-05)) ((-9.832122e-09 -3.970717e-06 -6.491525e-06) (8.375341e-09 1.737232e-07 3.207607e-06))
85            	((-4.588488e-03 7.435178e-05 5.788122e-05) (1.382389e-02 -8.508222e-05 -6.246627e-05)) ((-9.198262e-09 -3.936275e-06 -6.446851e-06) (8.335261e-09 1.721728e-07 3.176995e-06))
86            	((-4.529361e-03 7.260707e-05 5.597629e-05) (1.366718e-02 -8.395446e-05 -6.247710e-05)) ((-8.575421e-09 -3.902130e-06 -6.403151e-06) (8.291934e-09 1.707000e-07 3.147232e-06))
87            	((-4.471801e-03 7.092347e-05 5.409054e-05) (1.351450e-02 -8.285480e-05 -6.247876e-05)) ((-7.961881e-09 -3.868419e-06 -6.360485e-06) (8.245169e-09 1.693103e-07 3.118282e-06))
88            	((-4.415696e-03 6.926900e-05 5.216800e-05) (1.336572e-02 -8.178268e-05 -6.247271e-05)) ((-7.345328e-09 -3.835686e-06 -6.318502e-06) (8.195124e-09 1.679812e-07 3.090121e-06))
89            	((-4.360923e-03 6.764134e-05 5.022916e-05) (1.322068e-02 -8.073686e-05 -6.245690e-05)) ((-6.728635e-09 -3.803703e-06 -6.277193e-06) (8.141704e-09 1.667265e-07 3.062717e-06))
90            	((-4.307378e-03 6.604855e-05 4.831005e-05) (1.307927e-02 -7.971612e-05 -6.243315e-05)) ((-6.118959e-09 -3.772092e-06 -6.236638e-06) (8.085067e-09 1.655203e-07 3.036038e-06))
91            	((-4.254981e-03 6.449089e-05 4.640542e-05) (1.294134e-02 -7.871920e-05 -6.240010e-05)) ((-5.514606e-09 -3.740924e-06 -6.196837e-06) (8.025123e-09 1.643704e-07 3.010054e-06))
92            	((-4.203683e-03 6.298367e-05 4.453110e-05) (1.280677e-02 -7.774489e-05 -6.235965e-05)) ((-4.920174e-09 -3.710058e-06 -6.157933e-06) (7.961953e-09 1.632505e-07 2.984736e-06))
93            	((-4.153458e-03 6.146893e-05 4.262288e-05) (1.267545e-02 -7.679217e-05 -6.230944e-05)) ((-4.315536e-09 -3.680176e-06 -6.119296e-06) (7.895351e-09 1.621797e-07 2.960058e-06))
94            	((-4.104294e-03 5.997713e-05 4.072677e-05) (1.254727e-02 -7.586094e-05 -6.225035e-05)) ((-3.713811e-09 -3.650820e-06 -6.081214e-06) (7.825432e-09 1.611431e-07 2.936004e-06))
95            	((-4.056190e-03 5.852022e-05 3.884081e-05) (1.242211e-02 -7.495007e-05 -6.218112e-05)) ((-3.116162e-09 -3.622012e-06 -6.043753e-06) (7.752033e-09 1.601492e-07 2.912549e-06))
96            	((-4.009100e-03 5.710478e-05 3.698975e-05) (1.229989e-02 -7.406007e-05 -6.210381e-05)) ((-2.528780e-09 -3.593514e-06 -6.007066e-06) (7.675482e-09 1.591724e-07 2.889682e-06))
97            	((-3.963027e-03 5.574409e-05 3.515660e-05) (1.218050e-02 -7.318947e-05 -6.201721e-05)) ((-1.949784e-09 -3.565477e-06 -5.971155e-06) (7.595719e-09 1.582220e-07 2.867377e-06))
98            	((-3.917934e-03 5.440681e-05 3.328893e-05) (1.206385e-02 -7.233775e-05 -6.192302e-05)) ((-1.367679e-09 -3.538435e-06 -5.935709e-06) (7.512924e-09 1.572764e-07 2.845612e-06))
99            	((-3.873784e-03 5.309689e-05 3.140872e-05) (1.194985e-02 -7.150420e-05 -6.181923e-05)) ((-7.864005e-10 -3.512146e-06 -5.900769e-06) (7.427078e-09 1.563539e-07 2.824369e-06))
100           	((-3.830031e-03 5.174441e-05 2.956023e-05) (1.183841e-02 -7.068766e-05 -6.170789e-05)) ((-2.121086e-10 -3.486290e-06 -5.865429e-06) (7.338391e-09 1.554323e-07 2.803622e-06))
101           	((-3.787927e-03 5.056523e-05 2.772235e-05) (1.172945e-02 -6.988803e-05 -6.158782e-05)) ((3.507036e-10 -3.460656e-06 -5.832360e-06) (7.246975e-09 1.545266e-07 2.783363e-06))
102           	((-3.746146e-03 4.936300e-05 2.593112e-05) (1.162291e-02 -6.910553e-05 -6.146030e-05)) ((9.017113e-10 -3.435273e-06 -5.799067e-06) (7.152769e-09 1.536064e-07 2.763576e-06))
103           	((-3.705363e-03 4.821103e-05 2.409066e-05) (1.151869e-02 -6.833861e-05 -6.132401e-05)) ((1.457619e-09 -3.410893e-06 -5.766524e-06) (7.055889e-09 1.526962e-07 2.744240e-06))
104           	((-3.665502e-03 4.711216e-05 2.225703e-05) (1.141674e-02 -6.758819e-05 -6.117991e-05)) ((2.007475e-09 -3.386959e-06 -5.734751e-06) (6.956436e-09 1.517787e-07 2.725351e-06))
105           	((-3.626469e-03 4.605737e-05 2.043622e-05) (1.131698e-02 -6.685352e-05 -6.102640e-05)) ((2.550542e-09 -3.363426e-06 -5.703629e-06) (6.854289e-09 1.508673e-07 2.706891e-06))
106           	((-3.588170e-03 4.504826e-05 1.865527e-05) (1.121935e-02 -6.613469e-05 -6.086557e-05)) ((3.080478e-09 -3.340017e-06 -5.673122e-06) (6.749707e-09 1.499403e-07 2.688850e-06))
107           	((-3.550538e-03 4.408172e-05 1.689930e-05) (1.112379e-02 -6.543028e-05 -6.069612e-05)) ((3.599622e-09 -3.316873e-06 -5.643154e-06) (6.642626e-09 1.490120e-07 2.671205e-06))
108           	((-3.513534e-03 4.312577e-05 1.511594e-05) (1.103021e-02 -6.473998e-05 -6.051982e-05)) ((4.119479e-09 -3.294511e-06 -5.613353e-06) (6.533276e-09 1.480652e-07 2.653943e-06))
109           	((-3.477142e-03 4.218663e-05 1.332449e-05) (1.093857e-02 -6.406322e-05 -6.033465e-05)) ((4.636346e-09 -3.272701e-06 -5.583766e-06) (6.421607e-09 1.471222e-07 2.637050e-06))
110           	((-3.441364e-03 4.128206e-05 1.155993e-05) (1.084880e-02 -6.339975e-05 -6.014269e-05)) ((5.142191e-09 -3.251051e-06 -5.554569e-06) (6.307826e-09 1.461619e-07 2.620516e-06))
111           	((-3.406206e-03 4.041944e-05 9.817303e-06) (1.076085e-02 -6.274940e-05 -5.994255e-05)) ((5.637805e-09 -3.229591e-06 -5.525840e-06) (6.191917e-09 1.451996e-07 2.604331e-06))
112           	((-3.371671e-03 3.961531e-05 8.114004e-06) (1.067467e-02 -6.211183e-05 -5.973640e-05)) ((6.118157e-09 -3.208126e-06 -5.497755e-06) (6.074078e-09 1.442135e-07 2.588484e-06))
113           	((-3.337755e-03 3.883163e-05 6.365809e-06) (1.059020e-02 -6.148663e-05 -5.952237e-05)) ((6.601910e-09 -3.187525e-06 -5.469917e-06) (5.954204e-09 1.432238e-07 2.572963e-06))
114           	((-3.304443e-03 3.808263e-05 4.626256e-06) (1.050741e-02 -6.087413e-05 -5.930195e-05)) ((7.077880e-09 -3.167228e-06 -5.442465e-06) (5.832486e-09 1.422164e-07 2.557764e-06))
115           	((-3.271713e-03 3.737345e-05 2.898101e-06) (1.042624e-02 -6.027358e-05 -5.907372e-05)) ((7.545066e-09 -3.147205e-06 -5.415441e-06) (5.708793e-09 1.412074e-07 2.542875e-06))
116           	((-3.239543e-03 3.669677e-05 1.232250e-06) (1.034664e-02 -5.968533e-05 -5.883947e-05)) ((7.997452e-09 -3.126923e-06 -5.388750e-06) (5.583319e-09 1.401797e-07 2.528291e-06))
117           	((-3.207909e-03 3.606893e-05 -3.969083e-07) (1.026858e-02 -5.910821e-05 -5.859758e-05)) ((8.436171e-09 -3.106640e-06 -5.362551e-06) (5.455917e-09 1.391519e-07 2.513994e-06))
118           	((-3.176789e-03 3.546121e-05 -2.048559e-06) (1.019201e-02 -5.854204e-05 -5.835012e-05)) ((8.873207e-09 -3.086969e-06 -5.336530e-06) (5.326754e-09 1.381038e-07 2.499978e-06))
119           	((-3.146167e-03 3.487640e-05 -3.707299e-06) (1.011689e-02 -5.798686e-05 -5.809505e-05)) ((9.305919e-09 -3.067743e-06 -5.310708e-06) (5.195810e-09 1.370588e-07 2.486237e-06))
120           	((-3.116028e-03 3.432727e-05 -5.339923e-06) (1.004317e-02 -5.744247e-05 -5.783460e-05)) ((9.727182e-09 -3.048611e-06 -5.285208e-06) (5.063250e-09 1.359958e-07 2.472764e-06))
121           	((-3.086362e-03 3.381631e-05 -6.950549e-06) (9.970831e-03 -5.690846e-05 -5.756743e-05)) ((1.013818e-08 -3.029616e-06 -5.260056e-06) (4.928959e-09 1.349309e-07 2.459550e-06))
122           	((-3.057159e-03 3.335583e-05 -8.519757e-06) (9.899820e-03 -5.638457e-05 -5.729578e-05)) ((1.053423e-08 -3.010552e-06 -5.235388e-06) (4.793111e-09 1.338427e-07 2.446587e-06))
123           	((-3.028679e-03 3.293754e-05 -1.012174e-05) (9.830113e-03 -5.587060e-05 -5.701776e-05)) ((1.093264e-08 -2.992330e-06 -5.211432e-06) (4.655577e-09 1.327522e-07 2.433869e-06))
124           	((-3.000221e-03 3.249487e-05 -1.171434e-05) (9.761672e-03 -5.536676e-05 -5.673470e-05)) ((1.132462e-08 -2.974204e-06 -5.186707e-06) (4.516429e-09 1.316445e-07 2.421392e-06))
125           	((-2.972465e-03 3.211070e-05 -1.327792e-05) (9.694454e-03 -5.487206e-05 -5.644545e-05)) ((1.170692e-08 -2.956286e-06 -5.162875e-06) (4.375715e-09 1.305420e-07 2.409146e-06))
126           	((-2.944781e-03 3.172325e-05 -1.479955e-05) (9.628433e-03 -5.438711e-05 -5.615189e-05)) ((1.207618e-08 -2.938126e-06 -5.138569e-06) (4.233508e-09 1.294217e-07 2.397130e-06))
127           	((-2.917805e-03 3.140803e-05 -1.627759e-05) (9.563573e-03 -5.391069e-05 -5.585282e-05)) ((1.243219e-08 -2.920094e-06 -5.115416e-06) (4.089814e-09 1.283038e-07 2.385331e-06))
128           	((-2.891182e-03 3.109459e-05 -1.777178e-05) (9.499856e-03 -5.344337e-05 -5.554970e-05)) ((1.278818e-08 -2.902599e-06 -5.092223e-06) (3.944658e-09 1.271686e-07 2.373750e-06))
129           	((-2.864910e-03 3.078874e-05 -1.926433e-05) (9.437247e-03 -5.298451e-05 -5.524045e-05)) ((1.314083e-08 -2.885451e-06 -5.069054e-06) (3.797951e-09 1.260419e-07 2.362377e-06))
130           	((-2.838990e-03 3.050338e-05 -2.072024e-05) (9.375716e-03 -5.253393e-05 -5.492728e-05)) ((1.348272e-08 -2.868313e-06 -5.046076e-06) (3.649883e-09 1.249046e-07 2.351209e-06))
131           	((-2.813427e-03 3.024208e-05 -2.214440e-05) (9.315235e-03 -5.209147e-05 -5.460873e-05)) ((1.381503e-08 -2.851251e-06 -5.023367e-06) (3.500403e-09 1.237744e-07 2.340240e-06))
132           	((-2.788226e-03 3.001758e-05 -2.351935e-05) (9.255779e-03 -5.165684e-05 -5.428704e-05)) ((1.413324e-08 -2.834098e-06 -5.001099e-06) (3.349690e-09 1.226297e-07 2.329465e-06))
133           	((-2.763390e-03 2.979123e-05 -2.492701e-05) (9.197322e-03 -5.122966e-05 -5.396033e-05)) ((1.445578e-08 -2.817710e-06 -4.978882e-06) (3.197636e-09 1.214915e-07 2.318879e-06))
134           	((-2.738912e-03 2.957673e-05 -2.631499e-05) (9.139842e-03 -5.081038e-05 -5.363012e-05)) ((1.477192e-08 -2.801543e-06 -4.956871e-06) (3.044454e-09 1.203453e-07 2.308481e-06))
135           	((-2.714786e-03 2.937798e-05 -2.767910e-05) (9.083314e-03 -5.039839e-05 -5.329491e-05)) ((1.508103e-08 -2.785548e-06 -4.935101e-06) (2.890082e-09 1.192085e-07 2.298265e-06))
136           	((-2.690997e-03 2.920548e-05 -2.899416e-05) (9.027716e-03 -4.999418e-05 -5.295696e-05)) ((1.537740e-08 -2.769456e-06 -4.913675e-06) (2.734785e-09 1.180594e-07 2.288232e-06))
137           	((-2.667532e-03 2.905948e-05 -3.027328e-05) (8.973026e-03 -4.959683e-05 -5.261484e-05)) ((1.566341e-08 -2.753449e-06 -4.892612e-06) (2.578453e-09 1.169147e-07 2.278369e-06))
138           	((-2.644398e-03 2.890997e-05 -3.157362e-05) (8.919222e-03 -4.920646e-05 -5.227041e-05)) ((1.595182e-08 -2.737949e-06 -4.871583e-06) (2.421278e-09 1.157567e-07 2.268677e-06))
139           	((-2.621582e-03 2.873980e-05 -3.286762e-05) (8.866282e-03 -4.882273e-05 -5.192152e-05)) ((1.623950e-08 -2.722940e-06 -4.850837e-06) (2.263173e-09 1.146096e-07 2.259151e-06))
140           	((-2.598833e-03 2.864375e-05 -3.417900e-05) (8.814182e-03 -4.844566e-05 -5.157033e-05)) ((1.651821e-08 -2.707209e-06 -4.829130e-06) (2.104352e-09 1.134504e-07 2.249785e-06))
141           	((-2.576507e-03 2.854173e-05 -3.548538e-05) (8.762899e-03 -4.807508e-05 -5.121551e-05)) ((1.679555e-08 -2.691624e-06 -4.807338e-06) (1.944828e-09 1.122917e-07 2.240569e-06))
142           	((-2.554587e-03 2.843954e-05 -3.666210e-05) (8.712421e-03 -4.771068e-05 -5.085872e-05)) ((1.705505e-08 -2.676443e-06 -4.787131e-06) (1.784731e-09 1.111225e-07 2.231507e-06))
143           	((-2.533015e-03 2.827827e-05 -3.784283e-05) (8.662735e-03 -4.735226e-05 -5.049777e-05)) ((1.731851e-08 -2.662192e-06 -4.768095e-06) (1.623952e-09 1.099768e-07 2.222601e-06))
144           	((-2.511726e-03 2.812218e-05 -3.898820e-05) (8.613826e-03 -4.699957e-05 -5.013302e-05)) ((1.757288e-08 -2.648350e-06 -4.749482e-06) (1.462254e-09 1.088479e-07 2.213852e-06))
145           	((-2.490593e-03 2.800397e-05 -4.011984e-05) (8.565671e-03 -4.665321e-05 -4.976401e-05)) ((1.782000e-08 -2.634627e-06 -4.730196e-06) (1.300000e-09 1.077365e-07 2.205255e-06))
146           	((-2.469848e-03 2.794037e-05 -4.120982e-05) (8.518251e-03 -4.631340e-05 -4.939403e-05)) ((1.805300e-08 -2.620931e-06 -4.711520e-06) (1.137612e-09 1.066123e-07 2.196806e-06))
147           	((-2.448979e-03 2.795918e-05 -4.235269e-05) (8.471547e-03 -4.597897e-05 -4.902157e-05)) ((1.828099e-08 -2.606402e-06 -4.690235e-06) (9.749017e-10 1.054878e-07 2.188478e-06))
148           	((-2.428623e-03 2.787103e-05 -4.350699e-05) (8.425534e-03 -4.564954e-05 -4.864809e-05)) ((1.852600e-08 -2.592784e-06 -4.671806e-06) (8.121292e-10 1.043421e-07 2.180270e-06))
149           	((-2.408701e-03 2.781063e-05 -4.466126e-05) (8.380225e-03 -4.532438e-05 -4.826966e-05)) ((1.876232e-08 -2.579531e-06 -4.654287e-06) (6.486456e-10 1.032197e-07 2.172205e-06))
150           	((-2.388903e-03 2.778027e-05 -4.577009e-05) (8.335598e-03 -4.500368e-05 -4.788652e-05)) ((1.898053e-08 -2.566015e-06 -4.636566e-06) (4.843039e-10 1.021236e-07 2.164270e-06))
151           	((-2.369200e-03 2.777631e-05 -4.683273e-05) (8.291626e-03 -4.468743e-05 -4.749261e-05)) ((1.918168e-08 -2.552217e-06 -4.618507e-06) (3.181996e-10 1.011207e-07 2.156452e-06))
152           	((-2.349393e-03 2.775247e-05 -4.779828e-05) (8.248287e-03 -4.437534e-05 -4.709263e-05)) ((1.936051e-08 -2.538368e-06 -4.600265e-06) (1.511406e-10 1.001641e-07 2.148740e-06))
153           	((-2.329552e-03 2.778677e-05 -4.883706e-05) (8.205550e-03 -4.406690e-05 -4.669848e-05)) ((1.954758e-08 -2.524532e-06 -4.578769e-06) (-1.370039e-11 9.913169e-08 2.141116e-06))
154           	((-2.310187e-03 2.781246e-05 -4.990553e-05) (8.163410e-03 -4.376273e-05 -4.633267e-05)) ((1.974661e-08 -2.511560e-06 -4.558994e-06) (-1.711272e-10 9.777973e-08 2.133579e-06))
155           	((-2.291337e-03 2.790122e-05 -5.104605e-05) (8.121878e-03 -4.346257e-05 -4.600666e-05)) ((1.995971e-08 -2.500133e-06 -4.541137e-06) (-3.182745e-10 9.598609e-08 2.126152e-06))
156           	((-2.272935e-03 2.795058e-05 -5.227323e-05) (8.080943e-03 -4.316727e-05 -4.570779e-05)) ((2.019896e-08 -2.489682e-06 -4.524202e-06) (-4.585339e-10 9.388629e-08 2.118844e-06))
157           	((-2.254919e-03 2.794934e-05 -5.350611e-05) (8.040592e-03 -4.287565e-05 -4.539626e-05)) ((2.045056e-08 -2.480547e-06 -4.509364e-06) (-6.011148e-10 9.190586e-08 2.111649e-06))