# Region type : patch out
# Faces  :    144
# Area   :    1.250000e-07
# Time        	areaAverage(p)
0             	0.000000e+00
1             	2.646007e+05
2             	2.357297e+05
3             	8.933463e+04
4             	-1.210763e+04
5             	-3.816196e+04
6             	-2.363069e+04
7             	-3.449416e+03
8             	6.777550e+03
9             	7.167661e+03
10            	3.586772e+03
11            	5.946545e+02
12            	-4.300495e+02
13            	-1.259229e+02
14            	4.796152e+02
15            	8.187171e+02
16            	8.353726e+02
17            	7.023924e+02
18            	5.772318e+02
19            	5.174471e+02
20            	5.077225e+02
21            	5.136234e+02
22            	5.136328e+02
23            	5.037823e+02
24            	4.890632e+02
25            	4.748837e+02
26            	4.635800e+02
27            	4.548756e+02
28            	4.475659e+02
29            	4.407136e+02
30            	4.339959e+02
31            	4.275044e+02
32            	4.214213e+02
33            	4.158181e+02
34            	4.106389e+02
35            	4.057858e+02
36            	4.011917e+02
37            	3.968377e+02
38            	3.927183e+02
39            	3.888161e+02
40            	3.851039e+02
41            	3.815599e+02
42            	3.781732e+02
43            	3.749376e+02
44            	3.718431e+02
45            	3.688751e+02
46            	3.660229e+02
47            	3.632817e+02
48            	3.606475e+02
49            	3.581151e+02
50            	3.556767e+02
51            	3.533244e+02
52            	3.510533e+02
53            	3.488609e+02
54            	3.467435e+02
55            	3.446950e+02
56            	3.427103e+02
57            	3.407865e+02
58            	3.389224e+02
59            	3.371160e+02
60            	3.353639e+02
61            	3.336627e+02
62            	3.320104e+02
63            	3.304052e+02
64            	3.288449e+02
65            	3.273271e+02
66            	3.258497e+02
67            	3.244113e+02
68            	3.230104e+02
69            	3.216458e+02
70            	3.203158e+02
71            	3.190191e+02
72            	3.177547e+02
73            	3.165218e+02
74            	3.153193e+02
75            	3.141458e+02
76            	3.130000e+02
77            	3.118805e+02
78            	3.107863e+02
79            	3.097171e+02
80            	3.086726e+02
81            	3.076522e+02
82            	3.066553e+02
83            	3.056812e+02
84            	3.047295e+02
85            	3.037997e+02
86            	3.028915e+02
87            	3.020045e+02
88            	3.011384e+02
89            	3.002931e+02
90            	2.994683e+02
91            	2.986637e+02
92            	2.978790e+02
93            	2.971139e+02
94            	2.963684e+02
95            	2.956420e+02
96            	2.949348e+02
97            	2.942463e+02
98            	2.935764e+02
99            	2.929244e+02
100           	2.922900e+02
101           	2.916730e+02
102           	2.910731e+02
103           	2.904900e+02
104           	2.899234e+02
105           	2.893727e+02
106           	2.888375e+02
107           	2.883172e+02
108           	2.878113e+02
109           	2.873196e+02
110           	2.868415e+02
111           	2.863764e+02
112           	2.859239e+02
113           	2.854835e+02
114           	2.850550e+02
115           	2.846379e+02
116           	2.842318e+02
117           	2.838361e+02
118           	2.834503e+02
119           	2.830740e+02
120           	2.827066e+02
121           	2.823476e+02
122           	2.819965e+02
123           	2.816531e+02
124           	2.813166e+02
125           	2.809866e+02
126           	2.806628e+02
127           	2.803449e+02
128           	2.800323e+02
129           	2.797248e+02
130           	2.794219e+02
131           	2.791232e+02
132           	2.788286e+02
133           	2.785380e+02
134           	2.782511e+02
135           	2.779681e+02
136           	2.776888e+02
137           	2.774130e+02
138           	2.771408e+02
139           	2.768720e+02
140           	2.766069e+02
141           	2.763456e+02
142           	2.760882e+02
143           	2.758348e+02
144           	2.755854e+02
145           	2.753398e+02
146           	2.750983e+02
147           	2.748610e+02
148           	2.746279e+02
149           	2.743990e+02
150           	2.741743e+02
151           	2.739540e+02
152           	2.737382e+02
153           	2.735269e+02
154           	2.733201e+02
155           	2.731176e+02
156           	2.729195e+02
157           	2.727259e+02
158           	2.725364e+02
159           	2.723510e+02
160           	2.721694e+02
161           	2.719914e+02
162           	2.718167e+02
163           	2.716450e+02
164           	2.714762e+02
165           	2.713100e+02
166           	2.711465e+02
167           	2.709855e+02
168           	2.708268e+02
169           	2.706704e+02
170           	2.705162e+02
171           	2.703646e+02
172           	2.702157e+02
173           	2.700694e+02
174           	2.699259e+02
175           	2.697852e+02
176           	2.696477e+02
177           	2.695135e+02
178           	2.693829e+02
179           	2.692560e+02
180           	2.691329e+02
181           	2.690140e+02
182           	2.688994e+02
183           	2.687892e+02
184           	2.686833e+02
185           	2.685820e+02
186           	2.684854e+02
187           	2.683936e+02
188           	2.683068e+02
189           	2.682250e+02
190           	2.681482e+02
191           	2.680765e+02
192           	2.680100e+02
193           	2.679484e+02
194           	2.678918e+02
195           	2.678399e+02
196           	2.677928e+02
197           	2.677503e+02
198           	2.677119e+02
199           	2.676776e+02
200           	2.676471e+02
201           	2.676200e+02
202           	2.675960e+02
203           	2.675749e+02
204           	2.675564e+02
205           	2.675402e+02
206           	2.675261e+02
207           	2.675138e+02
208           	2.675029e+02
209           	2.674932e+02
210           	2.674845e+02
211           	2.674767e+02
212           	2.674697e+02
213           	2.674633e+02
214           	2.674575e+02
215           	2.674521e+02
216           	2.674472e+02
217           	2.674428e+02
218           	2.674391e+02
219           	2.674361e+02
220           	2.674337e+02
221           	2.674320e+02
222           	2.674309e+02
223           	2.674305e+02
224           	2.674309e+02
225           	2.674321e+02
226           	2.674342e+02
227           	2.674369e+02
228           	2.674402e+02
229           	2.674440e+02
230           	2.674482e+02
231           	2.674527e+02
232           	2.674574e+02
233           	2.674621e+02
234           	2.674667e+02
235           	2.674712e+02
236           	2.674753e+02
237           	2.674792e+02
238           	2.674825e+02
239           	2.674851e+02
240           	2.674869e+02
241           	2.674879e+02
242           	2.674880e+02
243           	2.674872e+02
244           	2.674853e+02
245           	2.674822e+02
246           	2.674780e+02
247           	2.674726e+02
248           	2.674660e+02
249           	2.674582e+02
250           	2.674492e+02
251           	2.674390e+02
252           	2.674277e+02
253           	2.674154e+02
254           	2.674020e+02
255           	2.673876e+02
256           	2.673724e+02
257           	2.673561e+02
258           	2.673390e+02
259           	2.673210e+02
260           	2.673023e+02
261           	2.672829e+02
262           	2.672628e+02
263           	2.672422e+02
264           	2.672209e+02
265           	2.671990e+02
266           	2.671765e+02
267           	2.671533e+02
268           	2.671296e+02
269           	2.671053e+02
270           	2.670804e+02
271           	2.670550e+02
272           	2.670290e+02
273           	2.670024e+02
274           	2.669752e+02
275           	2.669473e+02
276           	2.669187e+02
277           	2.668893e+02
278           	2.668591e+02
279           	2.668281e+02
280           	2.667961e+02
281           	2.667632e+02
282           	2.667293e+02
283           	2.666944e+02
284           	2.666584e+02
285           	2.666214e+02
286           	2.665835e+02
287           	2.665445e+02
288           	2.665047e+02
289           	2.664638e+02
290           	2.664220e+02
291           	2.663793e+02
292           	2.663358e+02
293           	2.662916e+02
294           	2.662467e+02
295           	2.662010e+02
296           	2.661546e+02
297           	2.661076e+02
298           	2.660600e+02
299           	2.660120e+02
300           	2.659634e+02
301           	2.659144e+02
302           	2.658649e+02
303           	2.658149e+02
304           	2.657646e+02
305           	2.657139e+02
306           	2.656628e+02
307           	2.656115e+02
308           	2.655598e+02
309           	2.655078e+02
310           	2.654557e+02
311           	2.654033e+02
312           	2.653506e+02
313           	2.652977e+02
314           	2.652446e+02
315           	2.651914e+02
316           	2.651380e+02
317           	2.650845e+02
318           	2.650309e+02
319           	2.649773e+02
320           	2.649235e+02
321           	2.648697e+02
322           	2.648158e+02
323           	2.647618e+02
324           	2.647078e+02
325           	2.646538e+02
326           	2.645998e+02
327           	2.645458e+02
328           	2.644917e+02
329           	2.644374e+02
330           	2.643829e+02
331           	2.643280e+02
332           	2.642730e+02
333           	2.642175e+02
334           	2.641618e+02
335           	2.641057e+02
336           	2.640492e+02
337           	2.639923e+02
338           	2.639351e+02
339           	2.638775e+02
340           	2.638196e+02
341           	2.637613e+02
342           	2.637028e+02
343           	2.636439e+02
344           	2.635848e+02
345           	2.635255e+02
346           	2.634660e+02
347           	2.634064e+02
348           	2.633467e+02
349           	2.632869e+02
350           	2.632269e+02
351           	2.631669e+02
352           	2.631068e+02
353           	2.630466e+02
354           	2.629863e+02
355           	2.629261e+02
356           	2.628658e+02
357           	2.628055e+02
358           	2.627451e+02
359           	2.626848e+02
360           	2.626245e+02
361           	2.625642e+02
362           	2.625038e+02
363           	2.624434e+02
364           	2.623828e+02
365           	2.623222e+02
366           	2.622616e+02
367           	2.622008e+02
368           	2.621399e+02
369           	2.620790e+02
370           	2.620179e+02
371           	2.619566e+02
372           	2.618951e+02
373           	2.618334e+02
374           	2.617715e+02
375           	2.617095e+02
376           	2.616475e+02
377           	2.615853e+02
378           	2.615230e+02
379           	2.614606e+02
380           	2.613982e+02
381           	2.613355e+02
382           	2.612727e+02
383           	2.612098e+02
384           	2.611466e+02
385           	2.610832e+02
386           	2.610195e+02
387           	2.609555e+02
388           	2.608914e+02
389           	2.608269e+02
390           	2.607620e+02
391           	2.606969e+02
392           	2.606316e+02
393           	2.605661e+02
394           	2.605005e+02
395           	2.604347e+02
396           	2.603689e+02
397           	2.603029e+02
398           	2.602369e+02
399           	2.601708e+02
400           	2.601048e+02
401           	2.600387e+02
402           	2.599725e+02
403           	2.599064e+02
404           	2.598402e+02
405           	2.597740e+02
406           	2.597078e+02
407           	2.596418e+02
408           	2.595758e+02
409           	2.595099e+02
410           	2.594442e+02
411           	2.593787e+02
412           	2.593134e+02
413           	2.592485e+02
414           	2.591838e+02
415           	2.591193e+02
416           	2.590551e+02
417           	2.589912e+02
418           	2.589277e+02
419           	2.588645e+02
420           	2.588016e+02
421           	2.587391e+02
422           	2.586770e+02
423           	2.586152e+02
424           	2.585537e+02
425           	2.584926e+02
426           	2.584319e+02
427           	2.583714e+02
428           	2.583113e+02
429           	2.582514e+02
430           	2.581918e+02
431           	2.581324e+02
432           	2.580732e+02
433           	2.580142e+02
434           	2.579553e+02
435           	2.578965e+02
436           	2.578379e+02
437           	2.577795e+02
438           	2.577214e+02
439           	2.576634e+02
440           	2.576056e+02
441           	2.575480e+02
442           	2.574907e+02
443           	2.574337e+02
444           	2.573771e+02
445           	2.573206e+02
446           	2.572644e+02
447           	2.572085e+02
448           	2.571529e+02
449           	2.570975e+02
450           	2.570423e+02
451           	2.569872e+02
452           	2.569321e+02
453           	2.568772e+02
454           	2.568222e+02
455           	2.567672e+02
456           	2.567120e+02
457           	2.566566e+02
458           	2.566010e+02
459           	2.565451e+02
460           	2.564889e+02
461           	2.564323e+02
462           	2.563754e+02
463           	2.563180e+02
464           	2.562603e+02
465           	2.562023e+02
466           	2.561439e+02
467           	2.560852e+02
468           	2.560264e+02
469           	2.559673e+02
470           	2.559081e+02
471           	2.558488e+02
472           	2.557895e+02
473           	2.557301e+02
474           	2.556708e+02
475           	2.556117e+02
476           	2.555526e+02
477           	2.554938e+02
478           	2.554352e+02
479           	2.553769e+02
480           	2.553188e+02
481           	2.552611e+02
482           	2.552038e+02
483           	2.551468e+02
484           	2.550902e+02
485           	2.550340e+02
486           	2.549782e+02
487           	2.549228e+02
488           	2.548678e+02
489           	2.548131e+02
490           	2.547587e+02
491           	2.547047e+02
492           	2.546509e+02
493           	2.545975e+02
494           	2.545443e+02
495           	2.544913e+02
496           	2.544385e+02
497           	2.543859e+02
498           	2.543333e+02
499           	2.542809e+02
500           	2.542286e+02
501           	2.541764e+02
502           	2.541242e+02
503           	2.540720e+02
504           	2.540198e+02
505           	2.539677e+02
506           	2.539155e+02
507           	2.538632e+02
508           	2.538110e+02
509           	2.537587e+02
510           	2.537063e+02
511           	2.536539e+02
512           	2.536015e+02
513           	2.535490e+02
514           	2.534965e+02
515           	2.534440e+02
516           	2.533915e+02
517           	2.533390e+02
518           	2.532865e+02
519           	2.532340e+02
520           	2.531816e+02
521           	2.531293e+02
522           	2.530771e+02
523           	2.530251e+02
524           	2.529732e+02
525           	2.529214e+02
526           	2.528698e+02
527           	2.528184e+02
528           	2.527673e+02
529           	2.527165e+02
530           	2.526659e+02
531           	2.526157e+02
532           	2.525658e+02
533           	2.525163e+02
534           	2.524672e+02
535           	2.524185e+02
536           	2.523703e+02
537           	2.523225e+02
538           	2.522752e+02
539           	2.522284e+02
540           	2.521820e+02
541           	2.521362e+02
542           	2.520909e+02
543           	2.520461e+02
544           	2.520018e+02
545           	2.519580e+02
546           	2.519148e+02
547           	2.518720e+02
548           	2.518298e+02
549           	2.517881e+02
550           	2.517468e+02
551           	2.517060e+02
552           	2.516656e+02
553           	2.516257e+02
554           	2.515862e+02
555           	2.515471e+02
556           	2.515083e+02
557           	2.514699e+02
558           	2.514318e+02
559           	2.513940e+02
560           	2.513565e+02
561           	2.513193e+02
562           	2.512824e+02
563           	2.512458e+02
564           	2.512094e+02
565           	2.511732e+02
566           	2.511373e+02
567           	2.511017e+02
568           	2.510662e+02
569           	2.510310e+02
570           	2.509960e+02
571           	2.509612e+02
572           	2.509266e+02
573           	2.508923e+02
574           	2.508581e+02
575           	2.508241e+02
576           	2.507904e+02
577           	2.507568e+02
578           	2.507235e+02
579           	2.506903e+02
580           	2.506574e+02
581           	2.506246e+02
582           	2.505920e+02
583           	2.505596e+02
584           	2.505274e+02
585           	2.504953e+02
586           	2.504634e+02
587           	2.504317e+02
588           	2.504001e+02
589           	2.503687e+02
590           	2.503374e+02
591           	2.503062e+02
592           	2.502752e+02
593           	2.502442e+02
594           	2.502134e+02
595           	2.501826e+02
596           	2.501519e+02
597           	2.501213e+02
598           	2.500907e+02
599           	2.500601e+02
600           	2.500296e+02
601           	2.499991e+02
602           	2.499685e+02
603           	2.499380e+02
604           	2.499073e+02
605           	2.498767e+02
606           	2.498459e+02
607           	2.498151e+02
608           	2.497842e+02
609           	2.497531e+02
610           	2.497219e+02
611           	2.496905e+02
612           	2.496589e+02
613           	2.496271e+02
614           	2.495951e+02
615           	2.495629e+02
616           	2.495303e+02
617           	2.494975e+02
618           	2.494644e+02
619           	2.494310e+02
620           	2.493972e+02
621           	2.493631e+02
622           	2.493285e+02
623           	2.492936e+02
624           	2.492583e+02
625           	2.492226e+02
626           	2.491864e+02
627           	2.491498e+02
628           	2.491128e+02
629           	2.490753e+02
630           	2.490373e+02
631           	2.489989e+02
632           	2.489600e+02
633           	2.489206e+02
634           	2.488807e+02
635           	2.488404e+02
636           	2.487995e+02
637           	2.487583e+02
638           	2.487165e+02
639           	2.486743e+02
640           	2.486317e+02
641           	2.485887e+02
642           	2.485452e+02
643           	2.485014e+02
644           	2.484572e+02
645           	2.484127e+02
646           	2.483678e+02
647           	2.483226e+02
648           	2.482772e+02
649           	2.482316e+02
650           	2.481857e+02
651           	2.481396e+02
652           	2.480933e+02
653           	2.480470e+02
654           	2.480005e+02
655           	2.479539e+02
656           	2.479073e+02
657           	2.478606e+02
658           	2.478140e+02
659           	2.477674e+02
660           	2.477209e+02
661           	2.476745e+02
662           	2.476283e+02
663           	2.475822e+02
664           	2.475362e+02
665           	2.474905e+02
666           	2.474450e+02
667           	2.473998e+02
668           	2.473548e+02
669           	2.473102e+02
670           	2.472658e+02
671           	2.472218e+02
672           	2.471782e+02
673           	2.471350e+02
674           	2.470921e+02
675           	2.470496e+02
676           	2.470076e+02
677           	2.469660e+02
678           	2.469248e+02
679           	2.468840e+02
680           	2.468438e+02
681           	2.468039e+02
682           	2.467646e+02
683           	2.467257e+02
684           	2.466873e+02
685           	2.466493e+02
686           	2.466118e+02
687           	2.465748e+02
688           	2.465383e+02
689           	2.465023e+02
690           	2.464667e+02
691           	2.464316e+02
692           	2.463969e+02
693           	2.463628e+02
694           	2.463290e+02
695           	2.462958e+02
696           	2.462630e+02
697           	2.462306e+02
698           	2.461986e+02
699           	2.461671e+02
700           	2.461361e+02
701           	2.461054e+02
702           	2.460752e+02
703           	2.460454e+02
704           	2.460160e+02
705           	2.459870e+02
706           	2.459585e+02
707           	2.459303e+02
708           	2.459025e+02
709           	2.458751e+02
710           	2.458481e+02
711           	2.458215e+02
712           	2.457952e+02
713           	2.457694e+02
714           	2.457438e+02
715           	2.457187e+02
716           	2.456939e+02
717           	2.456695e+02
718           	2.456454e+02
719           	2.456216e+02
720           	2.455981e+02
721           	2.455750e+02
722           	2.455522e+02
723           	2.455296e+02
724           	2.455074e+02
725           	2.454854e+02
726           	2.454636e+02
727           	2.454421e+02
728           	2.454208e+02
729           	2.453998e+02
730           	2.453789e+02
731           	2.453583e+02
732           	2.453378e+02
733           	2.453175e+02
734           	2.452974e+02
735           	2.452774e+02
736           	2.452575e+02
737           	2.452378e+02
738           	2.452181e+02
739           	2.451986e+02
740           	2.451791e+02
741           	2.451598e+02
742           	2.451405e+02
743           	2.451212e+02
744           	2.451020e+02
745           	2.450829e+02
746           	2.450638e+02
747           	2.450447e+02
748           	2.450256e+02
749           	2.450064e+02
750           	2.449873e+02
751           	2.449682e+02
752           	2.449490e+02
753           	2.449298e+02
754           	2.449106e+02
755           	2.448913e+02
756           	2.448719e+02
757           	2.448525e+02
758           	2.448330e+02
759           	2.448135e+02
760           	2.447939e+02
761           	2.447742e+02
762           	2.447544e+02
763           	2.447345e+02
764           	2.447145e+02
765           	2.446945e+02
766           	2.446743e+02
767           	2.446541e+02
768           	2.446338e+02
769           	2.446134e+02
770           	2.445929e+02
771           	2.445724e+02
772           	2.445517e+02
773           	2.445310e+02
774           	2.445102e+02
775           	2.444894e+02
776           	2.444685e+02
777           	2.444475e+02
778           	2.444265e+02
779           	2.444054e+02
780           	2.443843e+02
781           	2.443632e+02
782           	2.443421e+02
783           	2.443210e+02
784           	2.442998e+02
785           	2.442787e+02
786           	2.442575e+02
787           	2.442364e+02
788           	2.442154e+02
789           	2.441944e+02
790           	2.441734e+02
791           	2.441525e+02
792           	2.441317e+02
793           	2.441110e+02
794           	2.440904e+02
795           	2.440699e+02
796           	2.440494e+02
797           	2.440291e+02
798           	2.440090e+02
799           	2.439889e+02
800           	2.439690e+02
801           	2.439493e+02
802           	2.439297e+02
803           	2.439102e+02
804           	2.438909e+02
805           	2.438717e+02
806           	2.438527e+02
807           	2.438339e+02
808           	2.438153e+02
809           	2.437968e+02
810           	2.437785e+02
811           	2.437603e+02
812           	2.437424e+02
813           	2.437246e+02
814           	2.437069e+02
815           	2.436895e+02
816           	2.436722e+02
817           	2.436551e+02
818           	2.436382e+02
819           	2.436214e+02
820           	2.436048e+02
821           	2.435884e+02
822           	2.435721e+02
823           	2.435560e+02
824           	2.435401e+02
825           	2.435242e+02
826           	2.435086e+02
827           	2.434931e+02
828           	2.434777e+02
829           	2.434624e+02
830           	2.434473e+02
831           	2.434324e+02
832           	2.434175e+02
833           	2.434028e+02
834           	2.433881e+02
835           	2.433736e+02
836           	2.433592e+02
837           	2.433448e+02
838           	2.433306e+02
839           	2.433164e+02
840           	2.433023e+02
841           	2.432883e+02
842           	2.432744e+02
843           	2.432606e+02
844           	2.432468e+02
845           	2.432331e+02
846           	2.432195e+02
847           	2.432059e+02
848           	2.431924e+02
849           	2.431789e+02
850           	2.431655e+02
851           	2.431521e+02
852           	2.431388e+02
853           	2.431255e+02
854           	2.431122e+02
855           	2.430990e+02
856           	2.430858e+02
857           	2.430727e+02
858           	2.430595e+02
859           	2.430464e+02
860           	2.430333e+02
861           	2.430203e+02
862           	2.430072e+02
863           	2.429941e+02
864           	2.429811e+02
865           	2.429680e+02
866           	2.429550e+02
867           	2.429420e+02
868           	2.429290e+02
869           	2.429159e+02
870           	2.429029e+02
871           	2.428899e+02
872           	2.428769e+02
873           	2.428639e+02
874           	2.428510e+02
875           	2.428380e+02
876           	2.428250e+02
877           	2.428121e+02
878           	2.427991e+02
879           	2.427862e+02
880           	2.427733e+02
881           	2.427605e+02
882           	2.427476e+02
883           	2.427348e+02
884           	2.427220e+02
885           	2.427092e+02
886           	2.426965e+02
887           	2.426839e+02
888           	2.426712e+02
889           	2.426586e+02
890           	2.426460e+02
891           	2.426335e+02
892           	2.426211e+02
893           	2.426087e+02
894           	2.425963e+02
895           	2.425840e+02
896           	2.425718e+02
897           	2.425596e+02
898           	2.425475e+02
899           	2.425354e+02
900           	2.425234e+02
901           	2.425114e+02
902           	2.424996e+02
903           	2.424877e+02
904           	2.424760e+02
905           	2.424642e+02
906           	2.424526e+02
907           	2.424410e+02
908           	2.424295e+02
909           	2.424180e+02
910           	2.424066e+02
911           	2.423952e+02
912           	2.423839e+02
913           	2.423726e+02
914           	2.423614e+02
915           	2.423502e+02
916           	2.423391e+02
917           	2.423280e+02
918           	2.423170e+02
919           	2.423060e+02
920           	2.422950e+02
921           	2.422841e+02
922           	2.422732e+02
923           	2.422624e+02
924           	2.422516e+02
925           	2.422408e+02
926           	2.422301e+02
927           	2.422193e+02
928           	2.422087e+02
929           	2.421980e+02
930           	2.421874e+02
931           	2.421768e+02
932           	2.421662e+02
933           	2.421557e+02
934           	2.421452e+02
935           	2.421347e+02
936           	2.421242e+02
937           	2.421137e+02
938           	2.421033e+02
939           	2.420928e+02
940           	2.420824e+02
941           	2.420720e+02
942           	2.420617e+02
943           	2.420513e+02
944           	2.420409e+02
945           	2.420305e+02
946           	2.420202e+02
947           	2.420099e+02
948           	2.419996e+02
949           	2.419892e+02
950           	2.419789e+02
951           	2.419686e+02
952           	2.419583e+02
953           	2.419480e+02
954           	2.419377e+02
955           	2.419274e+02
956           	2.419171e+02
957           	2.419068e+02
958           	2.418964e+02
959           	2.418861e+02
960           	2.418758e+02
961           	2.418655e+02
962           	2.418551e+02
963           	2.418448e+02
964           	2.418344e+02
965           	2.418240e+02
966           	2.418136e+02
967           	2.418032e+02
968           	2.417928e+02
969           	2.417824e+02
970           	2.417720e+02
971           	2.417615e+02
972           	2.417511e+02
973           	2.417406e+02
974           	2.417301e+02
975           	2.417196e+02
976           	2.417091e+02
977           	2.416985e+02
978           	2.416880e+02
979           	2.416774e+02
980           	2.416668e+02
981           	2.416562e+02
982           	2.416456e+02
983           	2.416350e+02
984           	2.416244e+02
985           	2.416138e+02
986           	2.416032e+02
987           	2.415925e+02
988           	2.415819e+02
989           	2.415713e+02
990           	2.415606e+02
991           	2.415500e+02
992           	2.415393e+02
993           	2.415287e+02
994           	2.415181e+02
995           	2.415075e+02
996           	2.414969e+02
997           	2.414863e+02
998           	2.414757e+02
999           	2.414651e+02
1000          	2.414546e+02
1001          	2.414441e+02
1002          	2.414336e+02
1003          	2.414231e+02
1004          	2.414126e+02
1005          	2.414022e+02
1006          	2.413917e+02
1007          	2.413814e+02
1008          	2.413710e+02
1009          	2.413607e+02
1010          	2.413504e+02
1011          	2.413402e+02
1012          	2.413299e+02
1013          	2.413197e+02
1014          	2.413096e+02
1015          	2.412995e+02
1016          	2.412894e+02
1017          	2.412793e+02
1018          	2.412693e+02
1019          	2.412594e+02
1020          	2.412494e+02
1021          	2.412395e+02
1022          	2.412297e+02
1023          	2.412198e+02
1024          	2.412100e+02
1025          	2.412003e+02
1026          	2.411905e+02
1027          	2.411808e+02
1028          	2.411711e+02
1029          	2.411615e+02
1030          	2.411519e+02
1031          	2.411422e+02
1032          	2.411327e+02
1033          	2.411231e+02
1034          	2.411135e+02
1035          	2.411040e+02
1036          	2.410944e+02
1037          	2.410849e+02
1038          	2.410754e+02
1039          	2.410659e+02
1040          	2.410563e+02
1041          	2.410468e+02
1042          	2.410373e+02
1043          	2.410277e+02
1044          	2.410182e+02
1045          	2.410086e+02
1046          	2.409990e+02
1047          	2.409894e+02
1048          	2.409798e+02
1049          	2.409701e+02
1050          	2.409604e+02
1051          	2.409507e+02
1052          	2.409410e+02
1053          	2.409312e+02
1054          	2.409214e+02
1055          	2.409116e+02
1056          	2.409017e+02
1057          	2.408918e+02
1058          	2.408818e+02
1059          	2.408719e+02
1060          	2.408618e+02
1061          	2.408518e+02
1062          	2.408417e+02
1063          	2.408315e+02
1064          	2.408214e+02
1065          	2.408111e+02
1066          	2.408009e+02