# Region type : patch out
# Faces  :    302
# Area   :    1.250000e-07
# Time        	areaAverage(p)
0             	0.000000e+00
1             	8.682035e+04
2             	7.533718e+04
3             	4.082615e+04
4             	6.556420e+03
5             	-1.788510e+04
6             	-2.855514e+04
7             	-2.800825e+04
8             	-2.018397e+04
9             	-9.414447e+03
10            	3.192328e+02
11            	6.751004e+03
12            	9.252592e+03
13            	8.511266e+03
14            	5.831672e+03
15            	2.608331e+03
16            	-9.567401e+01
17            	-1.717792e+03
18            	-2.176327e+03
19            	-1.740872e+03
20            	-8.276512e+02
21            	1.439812e+02
22            	8.832586e+02
23            	1.254742e+03
24            	1.272071e+03
25            	1.042355e+03
26            	7.023237e+02
27            	3.793580e+02
28            	1.520792e+02
29            	5.147584e+01
30            	6.041078e+01
31            	1.392477e+02
32            	2.404080e+02
33            	3.262640e+02
34            	3.750694e+02
35            	3.827176e+02
36            	3.583740e+02
37            	3.165796e+02
38            	2.726125e+02
39            	2.370393e+02
40            	2.153810e+02
41            	2.078371e+02
42            	2.098733e+02
43            	2.166254e+02
44            	2.231154e+02
45            	2.263166e+02
46            	2.251577e+02
47            	2.200315e+02
48            	2.124266e+02
49            	2.037089e+02
50            	1.958268e+02
51            	1.894171e+02
52            	1.848925e+02
53            	1.820111e+02
54            	1.799577e+02
55            	1.781519e+02
56            	1.762495e+02
57            	1.739116e+02
58            	1.711482e+02
59            	1.680804e+02
60            	1.649213e+02
61            	1.618009e+02
62            	1.589470e+02
63            	1.564477e+02
64            	1.541752e+02
65            	1.521079e+02
66            	1.500885e+02
67            	1.481450e+02
68            	1.462732e+02
69            	1.443842e+02
70            	1.425034e+02
71            	1.406278e+02
72            	1.387847e+02
73            	1.370473e+02
74            	1.353503e+02
75            	1.337301e+02
76            	1.321425e+02
77            	1.306259e+02
78            	1.292102e+02
79            	1.278093e+02
80            	1.264363e+02
81            	1.251032e+02
82            	1.237531e+02
83            	1.224560e+02
84            	1.211789e+02
85            	1.199384e+02
86            	1.187304e+02
87            	1.175608e+02
88            	1.164486e+02
89            	1.153602e+02
90            	1.142946e+02
91            	1.132561e+02
92            	1.122234e+02
93            	1.112187e+02
94            	1.102233e+02
95            	1.092453e+02
96            	1.082973e+02
97            	1.073528e+02
98            	1.064536e+02
99            	1.055779e+02
100           	1.047266e+02
101           	1.038941e+02
102           	1.030880e+02
103           	1.022745e+02
104           	1.014694e+02
105           	1.006644e+02
106           	9.987814e+01
107           	9.910684e+01
108           	9.837147e+01
109           	9.766107e+01
110           	9.697100e+01
111           	9.629001e+01
112           	9.562056e+01
113           	9.494012e+01
114           	9.428161e+01
115           	9.362081e+01
116           	9.296524e+01
117           	9.231816e+01
118           	9.169001e+01
119           	9.109946e+01
120           	9.051868e+01
121           	8.994790e+01
122           	8.937788e+01
123           	8.880592e+01
124           	8.824515e+01
125           	8.769092e+01
126           	8.713881e+01
127           	8.659315e+01
128           	8.605976e+01
129           	8.555840e+01
130           	8.506158e+01
131           	8.456793e+01
132           	8.408760e+01
133           	8.359805e+01
134           	8.312040e+01
135           	8.264059e+01
136           	8.216341e+01
137           	8.169533e+01
138           	8.123064e+01
139           	8.078904e+01
140           	8.035850e+01
141           	7.993736e+01
142           	7.952102e+01
143           	7.911341e+01
144           	7.870185e+01
145           	7.828216e+01
146           	7.786307e+01
147           	7.744873e+01
148           	7.704710e+01
149           	7.665884e+01
150           	7.627966e+01
151           	7.590942e+01
152           	7.554738e+01
153           	7.518781e+01
154           	7.483492e+01
155           	7.447204e+01
156           	7.410525e+01
157           	7.373856e+01
158           	7.338227e+01
159           	7.304028e+01
160           	7.270435e+01
161           	7.237836e+01
162           	7.205972e+01
163           	7.174182e+01
164           	7.142121e+01
165           	7.110637e+01
166           	7.078778e+01
167           	7.046795e+01
168           	7.014897e+01
169           	6.984018e+01
170           	6.954321e+01
171           	6.925423e+01
172           	6.896847e+01
173           	6.868703e+01
174           	6.840755e+01
175           	6.812585e+01
176           	6.783623e+01
177           	6.754734e+01
178           	6.726669e+01
179           	6.699116e+01
180           	6.672904e+01
181           	6.647027e+01
182           	6.621474e+01
183           	6.596462e+01
184           	6.571416e+01
185           	6.546809e+01
186           	6.520985e+01
187           	6.494928e+01
188           	6.469136e+01
189           	6.444131e+01
190           	6.420146e+01
191           	6.396937e+01
192           	6.374521e+01
193           	6.352152e+01
194           	6.330184e+01
195           	6.307906e+01
196           	6.285231e+01
197           	6.262374e+01
198           	6.239303e+01
199           	6.216078e+01
200           	6.193573e+01
201           	6.172309e+01
202           	6.151941e+01
203           	6.132068e+01
204           	6.112749e+01
205           	6.093231e+01
206           	6.072864e+01
207           	6.051612e+01
208           	6.030233e+01
209           	6.009263e+01
210           	5.989714e+01
211           	5.970560e+01
212           	5.951875e+01
213           	5.934048e+01
214           	5.916454e+01
215           	5.898614e+01
216           	5.880357e+01
217           	5.861391e+01
218           	5.842214e+01
219           	5.823157e+01
220           	5.804906e+01
221           	5.787394e+01
222           	5.770295e+01
223           	5.754185e+01
224           	5.738432e+01
225           	5.722494e+01
226           	5.706156e+01
227           	5.689184e+01
228           	5.671666e+01
229           	5.654422e+01
230           	5.637662e+01
231           	5.621579e+01
232           	5.605832e+01
233           	5.591044e+01
234           	5.576802e+01
235           	5.562648e+01
236           	5.547865e+01
237           	5.532554e+01
238           	5.516856e+01
239           	5.501060e+01
240           	5.485530e+01
241           	5.471043e+01
242           	5.457055e+01
243           	5.443567e+01
244           	5.430183e+01
245           	5.417105e+01
246           	5.403977e+01
247           	5.390263e+01
248           	5.376067e+01
249           	5.361561e+01
250           	5.347412e+01
251           	5.334309e+01
252           	5.321062e+01
253           	5.308693e+01
254           	5.296498e+01
255           	5.284679e+01
256           	5.272858e+01
257           	5.260732e+01
258           	5.247959e+01
259           	5.234719e+01
260           	5.221651e+01
261           	5.209020e+01
262           	5.197265e+01
263           	5.185939e+01
264           	5.175006e+01
265           	5.164562e+01
266           	5.153902e+01
267           	5.143097e+01
268           	5.131372e+01
269           	5.119363e+01
270           	5.107304e+01
271           	5.095513e+01
272           	5.084214e+01
273           	5.073835e+01
274           	5.064021e+01
275           	5.054648e+01
276           	5.045153e+01
277           	5.035626e+01
278           	5.025263e+01
279           	5.014075e+01
280           	5.002654e+01
281           	4.991552e+01
282           	4.981256e+01
283           	4.971603e+01
284           	4.962634e+01
285           	4.954207e+01
286           	4.945845e+01
287           	4.937066e+01
288           	4.927539e+01
289           	4.917439e+01
290           	4.907131e+01
291           	4.896936e+01
292           	4.887572e+01
293           	4.878519e+01
294           	4.870199e+01
295           	4.862291e+01
296           	4.854515e+01
297           	4.846677e+01
298           	4.838454e+01
299           	4.829291e+01
300           	4.819918e+01
301           	4.810483e+01
302           	4.801440e+01
303           	4.793001e+01
304           	4.785181e+01
305           	4.778042e+01
306           	4.771224e+01
307           	4.764113e+01
308           	4.756473e+01
309           	4.748363e+01
310           	4.739801e+01
311           	4.730981e+01
312           	4.722536e+01
313           	4.714750e+01
314           	4.707413e+01
315           	4.700911e+01
316           	4.694503e+01
317           	4.688090e+01
318           	4.681493e+01
319           	4.674139e+01
320           	4.666298e+01
321           	4.658162e+01
322           	4.650131e+01
323           	4.642966e+01
324           	4.635964e+01
325           	4.629803e+01
326           	4.624123e+01
327           	4.618410e+01
328           	4.612269e+01
329           	4.605600e+01
330           	4.598554e+01
331           	4.591133e+01
332           	4.583556e+01
333           	4.576519e+01
334           	4.570041e+01
335           	4.564346e+01
336           	4.559056e+01
337           	4.554018e+01
338           	4.548601e+01
339           	4.542681e+01
340           	4.536096e+01
341           	4.529214e+01
342           	4.522186e+01
343           	4.515364e+01
344           	4.509125e+01
345           	4.503771e+01
346           	4.498969e+01
347           	4.494454e+01
348           	4.489479e+01
349           	4.484164e+01
350           	4.478321e+01
351           	4.471870e+01
352           	4.465177e+01
353           	4.458755e+01
354           	4.452975e+01
355           	4.447912e+01
356           	4.443311e+01
357           	4.439143e+01
358           	4.434874e+01
359           	4.430133e+01
360           	4.424655e+01
361           	4.418707e+01
362           	4.412597e+01
363           	4.406455e+01
364           	4.400810e+01
365           	4.395785e+01
366           	4.391607e+01
367           	4.387808e+01
368           	4.383863e+01
369           	4.379628e+01
370           	4.374664e+01
371           	4.369244e+01
372           	4.363409e+01
373           	4.357637e+01
374           	4.352301e+01
375           	4.347426e+01
376           	4.343215e+01
377           	4.339559e+01
378           	4.336209e+01
379           	4.332358e+01
380           	4.327966e+01
381           	4.322954e+01
382           	4.317679e+01
383           	4.312170e+01
384           	4.306823e+01
385           	4.302136e+01
386           	4.297955e+01
387           	4.294543e+01
388           	4.291263e+01
389           	4.287758e+01
390           	4.283809e+01
391           	4.279210e+01
392           	4.274128e+01
393           	4.268939e+01
394           	4.263856e+01
395           	4.259228e+01
396           	4.255096e+01
397           	4.251795e+01
398           	4.248757e+01
399           	4.245566e+01
400           	4.241930e+01
401           	4.237585e+01
402           	4.232855e+01
403           	4.227779e+01
404           	4.222728e+01
405           	4.218184e+01
406           	4.214211e+01
407           	4.210879e+01
408           	4.207836e+01
409           	4.204900e+01
410           	4.201650e+01
411           	4.197756e+01
412           	4.193183e+01
413           	4.188313e+01
414           	4.183411e+01
415           	4.178844e+01
416           	4.174753e+01
417           	4.171387e+01
418           	4.168595e+01
419           	4.165829e+01
420           	4.162834e+01
421           	4.159248e+01
422           	4.155061e+01
423           	4.150404e+01
424           	4.145578e+01
425           	4.141000e+01
426           	4.136973e+01
427           	4.133673e+01
428           	4.130813e+01
429           	4.128265e+01
430           	4.125518e+01
431           	4.122208e+01
432           	4.118216e+01
433           	4.113774e+01
434           	4.109140e+01
435           	4.104712e+01
436           	4.100671e+01
437           	4.097321e+01
438           	4.094589e+01
439           	4.092115e+01
440           	4.089492e+01
441           	4.086485e+01
442           	4.082958e+01
443           	4.078759e+01
444           	4.074201e+01
445           	4.069810e+01
446           	4.065784e+01
447           	4.062337e+01
448           	4.059580e+01
449           	4.057225e+01
450           	4.054911e+01
451           	4.052252e+01
452           	4.048911e+01
453           	4.045008e+01
454           	4.040736e+01
455           	4.036367e+01
456           	4.032260e+01
457           	4.028794e+01
458           	4.026075e+01
459           	4.023775e+01
460           	4.021546e+01
461           	4.019123e+01
462           	4.016159e+01
463           	4.012557e+01
464           	4.008388e+01
465           	4.004081e+01
466           	4.000092e+01
467           	3.996640e+01
468           	3.993734e+01
469           	3.991430e+01
470           	3.989358e+01
471           	3.987154e+01
472           	3.984397e+01
473           	3.981053e+01
474           	3.977182e+01
475           	3.973010e+01
476           	3.968898e+01
477           	3.965320e+01
478           	3.962400e+01
479           	3.960074e+01
480           	3.958054e+01
481           	3.955986e+01
482           	3.953519e+01
483           	3.950441e+01
484           	3.946733e+01
485           	3.942699e+01
486           	3.938656e+01
487           	3.935008e+01
488           	3.931950e+01
489           	3.929622e+01
490           	3.927704e+01
491           	3.925787e+01
492           	3.923413e+01
493           	3.920574e+01
494           	3.917107e+01
495           	3.913211e+01
496           	3.909169e+01
497           	3.905462e+01
498           	3.902385e+01
499           	3.899988e+01
500           	3.897999e+01
501           	3.896169e+01
502           	3.894141e+01
503           	3.891512e+01
504           	3.888194e+01
505           	3.884459e+01
506           	3.880527e+01
507           	3.876822e+01
508           	3.873588e+01
509           	3.871028e+01
510           	3.869047e+01
511           	3.867264e+01
512           	3.865257e+01
513           	3.862870e+01
514           	3.859941e+01
515           	3.856370e+01
516           	3.852463e+01
517           	3.848682e+01
518           	3.845365e+01
519           	3.842738e+01
520           	3.840719e+01
521           	3.839079e+01
522           	3.837387e+01
523           	3.835273e+01
524           	3.832378e+01
525           	3.829011e+01
526           	3.825311e+01
527           	3.821595e+01
528           	3.818172e+01
529           	3.815488e+01
530           	3.813442e+01
531           	3.811844e+01
532           	3.810208e+01
533           	3.808284e+01
534           	3.805810e+01
535           	3.802681e+01
536           	3.799026e+01
537           	3.795366e+01
538           	3.792029e+01
539           	3.789236e+01
540           	3.787114e+01
541           	3.785529e+01
542           	3.784055e+01
543           	3.782336e+01
544           	3.779988e+01
545           	3.777064e+01
546           	3.773669e+01
547           	3.770109e+01
548           	3.766665e+01
549           	3.763817e+01
550           	3.761624e+01
551           	3.759955e+01
552           	3.758487e+01
553           	3.756911e+01
554           	3.754901e+01
555           	3.752280e+01
556           	3.748999e+01
557           	3.745512e+01
558           	3.742154e+01
559           	3.739187e+01
560           	3.736842e+01
561           	3.735182e+01
562           	3.733888e+01
563           	3.732482e+01
564           	3.730641e+01
565           	3.728203e+01
566           	3.725207e+01
567           	3.721847e+01
568           	3.718444e+01
569           	3.715443e+01
570           	3.713091e+01
571           	3.711345e+01
572           	3.709976e+01
573           	3.708733e+01
574           	3.707179e+01
575           	3.704996e+01
576           	3.702143e+01
577           	3.698916e+01
578           	3.695577e+01
579           	3.692503e+01
580           	3.689924e+01
581           	3.688125e+01
582           	3.686843e+01
583           	3.685671e+01
584           	3.684159e+01
585           	3.682209e+01
586           	3.679704e+01
587           	3.676600e+01
588           	3.673222e+01
589           	3.670082e+01
590           	3.667442e+01
591           	3.665483e+01
592           	3.664014e+01
593           	3.662863e+01
594           	3.661614e+01
595           	3.659848e+01
596           	3.657406e+01
597           	3.654458e+01
598           	3.651209e+01
599           	3.648003e+01
600           	3.645181e+01
601           	3.643102e+01
602           	3.641610e+01
603           	3.640494e+01
604           	3.639291e+01
605           	3.637747e+01
606           	3.635551e+01
607           	3.632761e+01
608           	3.629532e+01
609           	3.626377e+01
610           	3.623563e+01
611           	3.621306e+01
612           	3.619633e+01
613           	3.618529e+01
614           	3.617491e+01
615           	3.616116e+01
616           	3.614125e+01
617           	3.611582e+01
618           	3.608567e+01
619           	3.605450e+01
620           	3.602491e+01
621           	3.600149e+01
622           	3.598582e+01
623           	3.597421e+01
624           	3.596405e+01
625           	3.595207e+01
626           	3.593549e+01
627           	3.591211e+01
628           	3.588308e+01
629           	3.585276e+01
630           	3.582422e+01
631           	3.580040e+01
632           	3.578272e+01
633           	3.577104e+01
634           	3.576231e+01
635           	3.575258e+01
636           	3.573775e+01
637           	3.571755e+01
638           	3.569107e+01
639           	3.566123e+01
640           	3.563206e+01
641           	3.560714e+01
642           	3.558934e+01
643           	3.557734e+01
644           	3.556883e+01
645           	3.556040e+01
646           	3.554842e+01
647           	3.552989e+01
648           	3.550441e+01
649           	3.547567e+01
650           	3.544704e+01
651           	3.542188e+01
652           	3.540130e+01
653           	3.538852e+01
654           	3.538042e+01
655           	3.537279e+01
656           	3.536126e+01
657           	3.534535e+01
658           	3.532323e+01
659           	3.529556e+01
660           	3.526586e+01
661           	3.523949e+01
662           	3.521857e+01
663           	3.520471e+01
664           	3.519559e+01
665           	3.518811e+01
666           	3.517900e+01
667           	3.516498e+01
668           	3.514369e+01
669           	3.511740e+01
670           	3.508880e+01
671           	3.506172e+01
672           	3.503920e+01
673           	3.502396e+01
674           	3.501472e+01
675           	3.500808e+01
676           	3.499942e+01
677           	3.498698e+01
678           	3.496878e+01
679           	3.494430e+01
680           	3.491586e+01
681           	3.488895e+01
682           	3.486670e+01
683           	3.484986e+01
684           	3.483899e+01
685           	3.483243e+01
686           	3.482595e+01
687           	3.481553e+01
688           	3.479915e+01
689           	3.477655e+01
690           	3.475028e+01
691           	3.472325e+01
692           	3.469876e+01
693           	3.468057e+01
694           	3.466945e+01
695           	3.466235e+01
696           	3.465577e+01
697           	3.464738e+01
698           	3.463381e+01
699           	3.461362e+01
700           	3.458763e+01
701           	3.456048e+01
702           	3.453556e+01
703           	3.451585e+01
704           	3.450257e+01
705           	3.449545e+01
706           	3.449082e+01
707           	3.448371e+01
708           	3.447132e+01
709           	3.445302e+01
710           	3.442925e+01
711           	3.440262e+01
712           	3.437687e+01
713           	3.435625e+01
714           	3.434289e+01
715           	3.433502e+01
716           	3.432975e+01
717           	3.432444e+01
718           	3.431524e+01
719           	3.429923e+01
720           	3.427667e+01
721           	3.425126e+01
722           	3.422620e+01
723           	3.420507e+01
724           	3.418976e+01
725           	3.418111e+01
726           	3.417745e+01
727           	3.417346e+01
728           	3.416519e+01
729           	3.415238e+01
730           	3.413302e+01
731           	3.410905e+01
732           	3.408362e+01
733           	3.406180e+01
734           	3.404628e+01
735           	3.403704e+01
736           	3.403260e+01
737           	3.402970e+01
738           	3.402450e+01
739           	3.401413e+01
740           	3.399622e+01
741           	3.397422e+01
742           	3.395043e+01
743           	3.392862e+01
744           	3.391167e+01
745           	3.390172e+01
746           	3.389776e+01
747           	3.389600e+01
748           	3.389187e+01
749           	3.388400e+01
750           	3.386970e+01
751           	3.384969e+01
752           	3.382613e+01
753           	3.380440e+01
754           	3.378778e+01
755           	3.377711e+01
756           	3.377218e+01
757           	3.377111e+01
758           	3.376929e+01
759           	3.376328e+01
760           	3.375047e+01
761           	3.373224e+01
762           	3.371075e+01
763           	3.368883e+01
764           	3.367069e+01
765           	3.365910e+01
766           	3.365430e+01
767           	3.365329e+01
768           	3.365202e+01
769           	3.364800e+01
770           	3.363864e+01
771           	3.362254e+01
772           	3.360149e+01
773           	3.358001e+01
774           	3.356191e+01
775           	3.354957e+01
776           	3.354294e+01
777           	3.354209e+01
778           	3.354276e+01
779           	3.354043e+01
780           	3.353254e+01
781           	3.351888e+01
782           	3.350023e+01
783           	3.347950e+01
784           	3.346001e+01
785           	3.344639e+01
786           	3.343936e+01
787           	3.343811e+01
788           	3.343844e+01
789           	3.343768e+01
790           	3.343296e+01
791           	3.342084e+01
792           	3.340293e+01
793           	3.338270e+01
794           	3.336346e+01
795           	3.334866e+01
796           	3.333938e+01
797           	3.333682e+01
798           	3.333797e+01
799           	3.333809e+01
800           	3.333348e+01
801           	3.332366e+01
802           	3.330803e+01
803           	3.328815e+01
804           	3.326760e+01
805           	3.325111e+01
806           	3.324095e+01
807           	3.323720e+01
808           	3.323708e+01
809           	3.323777e+01
810           	3.323543e+01
811           	3.322738e+01
812           	3.321188e+01
813           	3.319265e+01
814           	3.317247e+01
815           	3.315473e+01
816           	3.314229e+01
817           	3.313697e+01
818           	3.313678e+01
819           	3.313793e+01
820           	3.313591e+01
821           	3.312959e+01
822           	3.311677e+01
823           	3.309851e+01
824           	3.307727e+01
825           	3.305851e+01
826           	3.304529e+01
827           	3.303777e+01
828           	3.303576e+01
829           	3.303686e+01
830           	3.303631e+01
831           	3.303131e+01
832           	3.301903e+01
833           	3.300180e+01
834           	3.298172e+01
835           	3.296187e+01
836           	3.294600e+01
837           	3.293691e+01
838           	3.293423e+01
839           	3.293471e+01
840           	3.293422e+01
841           	3.293032e+01
842           	3.292063e+01
843           	3.290474e+01
844           	3.288440e+01
845           	3.286425e+01
846           	3.284778e+01
847           	3.283720e+01
848           	3.283246e+01
849           	3.283293e+01
850           	3.283420e+01
851           	3.283185e+01
852           	3.282365e+01
853           	3.280944e+01
854           	3.279069e+01
855           	3.277063e+01
856           	3.275264e+01
857           	3.274083e+01
858           	3.273597e+01
859           	3.273601e+01
860           	3.273694e+01
861           	3.273622e+01
862           	3.273119e+01
863           	3.271895e+01
864           	3.270088e+01
865           	3.268126e+01
866           	3.266325e+01
867           	3.265053e+01
868           	3.264330e+01
869           	3.264267e+01
870           	3.264509e+01
871           	3.264572e+01
872           	3.264141e+01
873           	3.263133e+01
874           	3.261592e+01
875           	3.259694e+01
876           	3.257772e+01
877           	3.256390e+01
878           	3.255606e+01
879           	3.255447e+01
880           	3.255591e+01
881           	3.255745e+01
882           	3.255550e+01
883           	3.254729e+01
884           	3.253218e+01
885           	3.251388e+01
886           	3.249539e+01
887           	3.247962e+01
888           	3.246955e+01
889           	3.246674e+01
890           	3.246850e+01
891           	3.247079e+01
892           	3.246934e+01
893           	3.246286e+01
894           	3.245017e+01
895           	3.243243e+01
896           	3.241257e+01
897           	3.239599e+01
898           	3.238509e+01
899           	3.238046e+01
900           	3.238070e+01
901           	3.238335e+01
902           	3.238368e+01
903           	3.237943e+01
904           	3.236778e+01
905           	3.235118e+01
906           	3.233255e+01
907           	3.231518e+01
908           	3.230210e+01
909           	3.229565e+01
910           	3.229576e+01
911           	3.229840e+01
912           	3.229919e+01
913           	3.229645e+01
914           	3.228750e+01
915           	3.227262e+01
916           	3.225376e+01
917           	3.223554e+01
918           	3.222198e+01
919           	3.221431e+01
920           	3.221232e+01
921           	3.221494e+01
922           	3.221747e+01
923           	3.221591e+01
924           	3.220822e+01
925           	3.219476e+01
926           	3.217721e+01
927           	3.215881e+01
928           	3.214294e+01
929           	3.213367e+01
930           	3.213145e+01
931           	3.213374e+01
932           	3.213604e+01
933           	3.213620e+01
934           	3.213102e+01
935           	3.211900e+01
936           	3.210170e+01
937           	3.208335e+01
938           	3.206737e+01
939           	3.205648e+01
940           	3.205172e+01
941           	3.205313e+01
942           	3.205682e+01
943           	3.205803e+01
944           	3.205387e+01
945           	3.204376e+01
946           	3.202852e+01
947           	3.201023e+01
948           	3.199259e+01
949           	3.198045e+01
950           	3.197481e+01
951           	3.197517e+01
952           	3.197793e+01
953           	3.198007e+01
954           	3.197814e+01
955           	3.196992e+01
956           	3.195509e+01
957           	3.193750e+01
958           	3.192018e+01
959           	3.190655e+01
960           	3.189868e+01
961           	3.189771e+01
962           	3.190086e+01
963           	3.190378e+01
964           	3.190251e+01
965           	3.189618e+01
966           	3.188382e+01
967           	3.186696e+01
968           	3.184831e+01
969           	3.183347e+01
970           	3.182498e+01
971           	3.182262e+01
972           	3.182473e+01
973           	3.182839e+01
974           	3.182937e+01
975           	3.182475e+01
976           	3.181329e+01
977           	3.179743e+01
978           	3.178003e+01
979           	3.176442e+01
980           	3.175325e+01
981           	3.174957e+01
982           	3.175199e+01
983           	3.175608e+01
984           	3.175774e+01
985           	3.175539e+01
986           	3.174655e+01
987           	3.173214e+01
988           	3.171430e+01
989           	3.169805e+01
990           	3.168690e+01
991           	3.168202e+01
992           	3.168246e+01
993           	3.168693e+01
994           	3.169084e+01
995           	3.169017e+01
996           	3.168280e+01
997           	3.167012e+01
998           	3.165391e+01
999           	3.163773e+01
1000          	3.162465e+01
1001          	3.161849e+01
1002          	3.161911e+01
1003          	3.162368e+01
1004          	3.162768e+01
1005          	3.162889e+01
1006          	3.162458e+01
1007          	3.161358e+01
1008          	3.159777e+01
1009          	3.158169e+01
1010          	3.156854e+01
1011          	3.156111e+01
1012          	3.155983e+01
1013          	3.156400e+01
1014          	3.156971e+01
1015          	3.157247e+01
1016          	3.156921e+01
1017          	3.156032e+01
1018          	3.154662e+01
1019          	3.153061e+01
1020          	3.151607e+01
1021          	3.150735e+01
1022          	3.150545e+01
1023          	3.150901e+01
1024          	3.151428e+01
1025          	3.151827e+01
1026          	3.151800e+01
1027          	3.151110e+01
1028          	3.149774e+01
1029          	3.148227e+01
1030          	3.146796e+01
1031          	3.145790e+01
1032          	3.145374e+01
1033          	3.145642e+01
1034          	3.146248e+01
1035          	3.146778e+01
1036          	3.146831e+01
1037          	3.146305e+01
1038          	3.145212e+01
1039          	3.143725e+01
1040          	3.142164e+01
1041          	3.141043e+01
1042          	3.140544e+01
1043          	3.140668e+01
1044          	3.141166e+01
1045          	3.141765e+01
1046          	3.142024e+01
1047          	3.141695e+01
1048          	3.140669e+01
1049          	3.139243e+01
1050          	3.137744e+01
1051          	3.136494e+01
1052          	3.135731e+01
1053          	3.135711e+01
1054          	3.136212e+01
1055          	3.136818e+01
1056          	3.137123e+01
1057          	3.136960e+01
1058          	3.136162e+01
1059          	3.134835e+01
1060          	3.133237e+01
1061          	3.131862e+01
1062          	3.131027e+01
1063          	3.130821e+01
1064          	3.131123e+01
1065          	3.131749e+01
1066          	3.132228e+01