# Region type : patch out
# Faces  :    298
# Area   :    1.250000e-07
# Time        	areaAverage(p)
0             	0.000000e+00
1             	0.000000e+00
2             	0.000000e+00
3             	0.000000e+00
4             	-9.215752e-02
5             	-8.049303e-02
6             	-7.623196e-02
7             	-5.583450e-02
8             	-4.960394e-02
9             	-3.691809e-02
10            	-2.612231e-02
11            	-1.829043e-02
12            	-1.280330e-02
13            	-8.962310e-03
14            	-6.273617e-03
15            	-4.391532e-03
16            	-3.074072e-03
17            	-2.151851e-03
18            	-1.506296e-03
19            	-1.054407e-03
20            	-7.380848e-04
21            	-5.166594e-04
22            	-3.616616e-04
23            	-2.531631e-04
24            	-1.772142e-04
25            	-1.240499e-04
26            	-8.683494e-05
27            	-6.078446e-05
28            	-4.254912e-05
29            	-2.978438e-05
30            	-2.084907e-05
31            	-1.459435e-05
32            	-1.021604e-05
33            	-7.151231e-06
34            	-5.005861e-06
35            	-3.504103e-06
36            	-2.452872e-06
37            	-1.717010e-06
38            	-1.201907e-06
39            	-8.413351e-07
40            	-5.889346e-07
41            	-4.122542e-07
42            	-2.885779e-07
43            	-2.020046e-07
44            	-1.414032e-07
45            	-9.898224e-08
46            	-6.928757e-08
47            	-4.850130e-08
48            	-3.395091e-08
49            	-2.376563e-08
50            	-1.663594e-08
51            	-1.164516e-08
52            	-8.151613e-09
53            	-5.706129e-09
54            	-3.994290e-09
55            	-2.796003e-09
56            	-1.957202e-09
57            	-1.370042e-09
58            	-9.590291e-10
59            	-6.713204e-10
60            	-4.699243e-10
61            	-3.289470e-10
62            	-2.302629e-10
63            	-1.611840e-10
64            	-1.128288e-10
65            	-7.898017e-11
66            	-5.528612e-11
67            	-3.870028e-11
68            	-2.709020e-11
69            	-1.896314e-11
70            	-1.327420e-11
71            	-9.291938e-12
72            	-6.504357e-12
73            	-4.553050e-12
74            	-3.187135e-12
75            	-2.230994e-12
76            	-1.561696e-12
77            	-1.093187e-12
78            	-7.652310e-13
79            	-5.356617e-13
80            	-3.749632e-13
81            	-2.624742e-13
82            	-1.837320e-13
83            	-1.286124e-13
84            	-9.002867e-14
85            	-6.302007e-14
86            	-4.411405e-14
87            	-3.087983e-14
88            	-2.161588e-14
89            	-1.513112e-14
90            	-1.059178e-14
91            	-7.414248e-15
92            	-5.189974e-15
93            	-3.632981e-15
94            	-2.543087e-15
95            	-1.780161e-15
96            	-1.246113e-15
97            	-8.722789e-16
98            	-6.105952e-16
99            	-4.274166e-16
100           	-2.991916e-16
101           	-2.094342e-16
102           	-1.466039e-16
103           	-1.026227e-16
104           	-7.183591e-17
105           	-5.028514e-17
106           	-3.519960e-17
107           	-2.463972e-17
108           	-1.724780e-17
109           	-1.207346e-17
110           	-8.451423e-18
111           	-5.915996e-18
112           	-4.141197e-18
113           	-2.898838e-18
114           	-2.029187e-18
115           	-1.420431e-18
116           	-9.943015e-19
117           	-6.960111e-19
118           	-4.872077e-19
119           	-3.410454e-19
120           	-2.387318e-19
121           	-1.671123e-19
122           	-1.169786e-19
123           	-8.188501e-20
124           	-5.731950e-20
125           	-4.012365e-20
126           	-2.808656e-20
127           	-1.966059e-20
128           	-1.376241e-20
129           	-9.633689e-21
130           	-6.743582e-21
131           	-4.720508e-21
132           	-3.304355e-21
133           	-2.313049e-21
134           	-1.619134e-21
135           	-1.133394e-21
136           	-7.933757e-22
137           	-5.553630e-22
138           	-3.887541e-22
139           	-2.721279e-22
140           	-1.904895e-22
141           	-1.333427e-22
142           	-9.333986e-23
143           	-6.533790e-23
144           	-4.573653e-23
145           	-3.201557e-23
146           	-2.241090e-23
147           	-1.568763e-23
148           	-1.098134e-23
149           	-7.686939e-24
150           	-5.380857e-24
151           	-3.766600e-24
152           	-2.636620e-24
153           	-1.845634e-24
154           	-1.291944e-24
155           	-9.043607e-25
156           	-6.330525e-25
157           	-4.431367e-25
158           	-3.101957e-25
159           	-2.171370e-25
160           	-1.519959e-25
161           	-1.063971e-25
162           	-7.447799e-26
163           	-5.213459e-26
164           	-3.649421e-26
165           	-2.554595e-26
166           	-1.788217e-26
167           	-1.251752e-26
168           	-8.762261e-27
169           	-6.133583e-27
170           	-4.293508e-27
171           	-3.005456e-27
172           	-2.103819e-27
173           	-1.472673e-27
174           	-1.030871e-27
175           	-7.216099e-28
176           	-5.051269e-28
177           	-3.535888e-28
178           	-2.475122e-28
179           	-1.732585e-28
180           	-1.212810e-28
181           	-8.489668e-29
182           	-5.942768e-29
183           	-4.159937e-29
184           	-2.911956e-29
185           	-2.038369e-29
186           	-1.426858e-29
187           	-9.988009e-30
188           	-6.991607e-30
189           	-4.894125e-30
190           	-3.425887e-30
191           	-2.398121e-30
192           	-1.678685e-30
193           	-1.175079e-30
194           	-8.225555e-31
195           	-5.757889e-31
196           	-4.030522e-31
197           	-2.821365e-31
198           	-1.974956e-31
199           	-1.382469e-31
200           	-9.677283e-32
201           	-6.774098e-32
202           	-4.741869e-32
203           	-3.319308e-32
204           	-2.323516e-32
205           	-1.626461e-32
206           	-1.138523e-32
207           	-7.969659e-33
208           	-5.578761e-33
209           	-3.905133e-33
210           	-2.733593e-33
211           	-1.913515e-33
212           	-1.339461e-33
213           	-9.376224e-34
214           	-6.563357e-34
215           	-4.594350e-34
216           	-3.216045e-34
217           	-2.251231e-34
218           	-1.575862e-34
219           	-1.103103e-34
220           	-7.721724e-35
221           	-5.405207e-35
222           	-3.783645e-35
223           	-2.648551e-35
224           	-1.853986e-35
225           	-1.297790e-35
226           	-9.084531e-36
227           	-6.359172e-36
228           	-4.451420e-36
229           	-3.115994e-36
230           	-2.181196e-36
231           	-1.526837e-36
232           	-1.068786e-36
233           	-7.481502e-37
234           	-5.237051e-37
235           	-3.665936e-37
236           	-2.566155e-37
237           	-1.796309e-37
238           	-1.257416e-37
239           	-8.801912e-38
240           	-6.161338e-38
241           	-4.312937e-38
242           	-3.019056e-38
243           	-2.113339e-38
244           	-1.479337e-38
245           	-1.035536e-38
246           	-7.248753e-39
247           	-5.074127e-39
248           	-3.551889e-39
249           	-2.486322e-39
250           	-1.740426e-39
251           	-1.218298e-39
252           	-8.528085e-40
253           	-5.969660e-40
254           	-4.178762e-40
255           	-2.925133e-40
256           	-2.047593e-40
257           	-1.433315e-40
258           	-1.003321e-40
259           	-7.023245e-41
260           	-4.916272e-41
261           	-3.441390e-41
262           	-2.408973e-41
263           	-1.686281e-41
264           	-1.180397e-41
265           	-8.262778e-42
266           	-5.783944e-42
267           	-4.048761e-42
268           	-2.834133e-42
269           	-1.983893e-42
270           	-1.388725e-42
271           	-9.721075e-43
272           	-6.804753e-43
273           	-4.763327e-43
274           	-3.334329e-43
275           	-2.334030e-43
276           	-1.633821e-43
277           	-1.143675e-43
278           	-8.005723e-44
279           	-5.604006e-44
280           	-3.922805e-44
281           	-2.745963e-44
282           	-1.922174e-44
283           	-1.345522e-44
284           	-9.418654e-45
285           	-6.593058e-45
286           	-4.615140e-45
287           	-3.230598e-45
288           	-2.261419e-45
289           	-1.582993e-45
290           	-1.108095e-45
291           	-7.756666e-46
292           	-5.429666e-46
293           	-3.800766e-46
294           	-2.660537e-46
295           	-1.862376e-46
296           	-1.303663e-46
297           	-9.125640e-47
298           	-6.387948e-47
299           	-4.471564e-47
300           	-3.130095e-47
301           	-2.191066e-47
302           	-1.533746e-47
303           	-1.073622e-47
304           	-7.515357e-48
305           	-5.260750e-48
306           	-3.682525e-48
307           	-2.577768e-48
308           	-1.804437e-48
309           	-1.263106e-48
310           	-8.841743e-49
311           	-6.189220e-49
312           	-4.332454e-49
313           	-3.032718e-49
314           	-2.122902e-49
315           	-1.486032e-49
316           	-1.040222e-49
317           	-7.281555e-50
318           	-5.097089e-50
319           	-3.567962e-50
320           	-2.497573e-50
321           	-1.748301e-50
322           	-1.223811e-50
323           	-8.566677e-51
324           	-5.996674e-51
325           	-4.197672e-51
326           	-2.938370e-51
327           	-2.056859e-51
328           	-1.439801e-51
329           	-1.007861e-51
330           	-7.055027e-52
331           	-4.938519e-52
332           	-3.456963e-52
333           	-2.419874e-52
334           	-1.693912e-52
335           	-1.185738e-52
336           	-8.300168e-53
337           	-5.810118e-53
338           	-4.067083e-53
339           	-2.846958e-53
340           	-1.992870e-53
341           	-1.395009e-53
342           	-9.765065e-54
343           	-6.835546e-54
344           	-4.784882e-54
345           	-3.349417e-54
346           	-2.344592e-54
347           	-1.641215e-54
348           	-1.148850e-54
349           	-8.041951e-55
350           	-5.629366e-55
351           	-3.940556e-55
352           	-2.758389e-55
353           	-1.930872e-55
354           	-1.351611e-55
355           	-9.461275e-56
356           	-6.622893e-56
357           	-4.636025e-56
358           	-3.245217e-56
359           	-2.271652e-56
360           	-1.590156e-56
361           	-1.113110e-56
362           	-7.791767e-57
363           	-5.454237e-57
364           	-3.817966e-57
365           	-2.672576e-57
366           	-1.870803e-57
367           	-1.309562e-57
368           	-9.166936e-58
369           	-6.416855e-58
370           	-4.491799e-58
371           	-3.144259e-58
372           	-2.200981e-58
373           	-1.540687e-58
374           	-1.078481e-58
375           	-7.549366e-59
376           	-5.284556e-59
377           	-3.699189e-59
378           	-2.589432e-59
379           	-1.812603e-59
380           	-1.268822e-59
381           	-8.881753e-60
382           	-6.217227e-60
383           	-4.352059e-60
384           	-3.046441e-60
385           	-2.132509e-60
386           	-1.492756e-60
387           	-1.044929e-60
388           	-7.314506e-61
389           	-5.120154e-61
390           	-3.584108e-61
391           	-2.508875e-61
392           	-1.756213e-61
393           	-1.229349e-61
394           	-8.605443e-62
395           	-6.023810e-62
396           	-4.216667e-62
397           	-2.951667e-62
398           	-2.066167e-62
399           	-1.446317e-62
400           	-1.012422e-62
401           	-7.086952e-63
402           	-4.960867e-63
403           	-3.472607e-63
404           	-2.430825e-63
405           	-1.701577e-63
406           	-1.191104e-63
407           	-8.337728e-64
408           	-5.836410e-64
409           	-4.085487e-64
410           	-2.859841e-64
411           	-2.001889e-64
412           	-1.401322e-64
413           	-9.809254e-65
414           	-6.866478e-65
415           	-4.806535e-65
416           	-3.364574e-65
417           	-2.355202e-65
418           	-1.648641e-65
419           	-1.154049e-65
420           	-8.078343e-66
421           	-5.654840e-66
422           	-3.958388e-66
423           	-2.770872e-66
424           	-1.939610e-66
425           	-1.357727e-66
426           	-9.504089e-67
427           	-6.652862e-67
428           	-4.657004e-67
429           	-3.259903e-67
430           	-2.281932e-67
431           	-1.597352e-67
432           	-1.118147e-67
433           	-7.827026e-68
434           	-5.478918e-68
435           	-3.835243e-68
436           	-2.684670e-68
437           	-1.879269e-68
438           	-1.315488e-68
439           	-9.208418e-69
440           	-6.445893e-69
441           	-4.512125e-69
442           	-3.158487e-69
443           	-2.210941e-69
444           	-1.547659e-69
445           	-1.083361e-69
446           	-7.583528e-70
447           	-5.308470e-70
448           	-3.715929e-70
449           	-2.601150e-70
450           	-1.820805e-70
451           	-1.274564e-70
452           	-8.921945e-71
453           	-6.245362e-71
454           	-4.371753e-71
455           	-3.060227e-71
456           	-2.142159e-71
457           	-1.499511e-71
458           	-1.049658e-71
459           	-7.347605e-72
460           	-5.143324e-72
461           	-3.600327e-72
462           	-2.520229e-72
463           	-1.764160e-72
464           	-1.234912e-72
465           	-8.644384e-73
466           	-6.051069e-73
467           	-4.235748e-73
468           	-2.965024e-73
469           	-2.075517e-73
470           	-1.452862e-73
471           	-1.017003e-73
472           	-7.119022e-74
473           	-4.983316e-74
474           	-3.488321e-74
475           	-2.441825e-74
476           	-1.709277e-74
477           	-1.196494e-74
478           	-8.375458e-75
479           	-5.862821e-75
480           	-4.103975e-75
481           	-2.872782e-75
482           	-2.010948e-75
483           	-1.407663e-75
484           	-9.853643e-76
485           	-6.897550e-76
486           	-4.828285e-76
487           	-3.379800e-76
488           	-2.365860e-76
489           	-1.656102e-76
490           	-1.159271e-76
491           	-8.114899e-77
492           	-5.680429e-77
493           	-3.976300e-77
494           	-2.783410e-77
495           	-1.948387e-77
496           	-1.363871e-77
497           	-9.547097e-78
498           	-6.682968e-78
499           	-4.678078e-78
500           	-3.274654e-78
501           	-2.292258e-78
502           	-1.604581e-78
503           	-1.123206e-78
504           	-7.862445e-79
505           	-5.503712e-79
506           	-3.852598e-79
507           	-2.696819e-79
508           	-1.887773e-79
509           	-1.321441e-79
510           	-9.250088e-80
511           	-6.475062e-80
512           	-4.532543e-80
513           	-3.172780e-80
514           	-2.220946e-80
515           	-1.554662e-80
516           	-1.088264e-80
517           	-7.617845e-81
518           	-5.332492e-81
519           	-3.732744e-81
520           	-2.612921e-81
521           	-1.829045e-81
522           	-1.280331e-81
523           	-8.962319e-82
524           	-6.273623e-82
525           	-4.391536e-82
526           	-3.074075e-82
527           	-2.151853e-82
528           	-1.506297e-82
529           	-1.054408e-82
530           	-7.380855e-83
531           	-5.166598e-83
532           	-3.616619e-83
533           	-2.531633e-83
534           	-1.772143e-83
535           	-1.240500e-83
536           	-8.683502e-84
537           	-6.078451e-84
538           	-4.254916e-84
539           	-2.978441e-84
540           	-2.084909e-84
541           	-1.459436e-84
542           	-1.021605e-84
543           	-7.151237e-85
544           	-5.005866e-85
545           	-3.504106e-85
546           	-2.452874e-85
547           	-1.717012e-85
548           	-1.201908e-85
549           	-8.413359e-86
550           	-5.889351e-86
551           	-4.122546e-86
552           	-2.885782e-86
553           	-2.020048e-86
554           	-1.414033e-86
555           	-9.898233e-87
556           	-6.928763e-87
557           	-4.850134e-87
558           	-3.395094e-87
559           	-2.376566e-87
560           	-1.663596e-87
561           	-1.164517e-87
562           	-8.151620e-88
563           	-5.706134e-88
564           	-3.994294e-88
565           	-2.796006e-88
566           	-1.957204e-88
567           	-1.370043e-88
568           	-9.590300e-89
569           	-6.713210e-89
570           	-4.699247e-89
571           	-3.289473e-89
572           	-2.302631e-89
573           	-1.611842e-89
574           	-1.128289e-89
575           	-7.898024e-90
576           	-5.528617e-90
577           	-3.870032e-90
578           	-2.709022e-90
579           	-1.896316e-90
580           	-1.327421e-90
581           	-9.291947e-91
582           	-6.504363e-91
583           	-4.553054e-91
584           	-3.187138e-91
585           	-2.230996e-91
586           	-1.561697e-91
587           	-1.093188e-91
588           	-7.652318e-92
589           	-5.356622e-92
590           	-3.749636e-92
591           	-2.624745e-92
592           	-1.837321e-92
593           	-1.286125e-92
594           	-9.002875e-93
595           	-6.302013e-93
596           	-4.411409e-93
597           	-3.087986e-93
598           	-2.161590e-93
599           	-1.513113e-93
600           	-1.059179e-93
601           	-7.414255e-94
602           	-5.189978e-94
603           	-3.632985e-94
604           	-2.543089e-94
605           	-1.780163e-94
606           	-1.246114e-94
607           	-8.722797e-95
608           	-6.105958e-95
609           	-4.274170e-95
610           	-2.991919e-95
611           	-2.094343e-95
612           	-1.466040e-95
613           	-1.026228e-95
614           	-7.183598e-96
615           	-5.028519e-96
616           	-3.519963e-96
617           	-2.463974e-96
618           	-1.724782e-96
619           	-1.207347e-96
620           	-8.451431e-97
621           	-5.916002e-97
622           	-4.141201e-97
623           	-2.898841e-97
624           	-2.029189e-97
625           	-1.420432e-97
626           	-9.943025e-98
627           	-6.960117e-98
628           	-4.872082e-98
629           	-3.410457e-98
630           	-2.387320e-98
631           	-1.671124e-98
632           	-1.169787e-98
633           	-8.188508e-99
634           	-5.731956e-99
635           	-4.012369e-99
636           	-2.808658e-99
637           	-1.966061e-99
638           	-1.376243e-99
639           	-9.633698e-100
640           	-6.743589e-100
641           	-4.720512e-100
642           	-3.304358e-100
643           	-2.313051e-100
644           	-1.619136e-100
645           	-1.133395e-100
646           	-7.933765e-101
647           	-5.553635e-101
648           	-3.887545e-101
649           	-2.721281e-101
650           	-1.904897e-101
651           	-1.333428e-101
652           	-9.333995e-102
653           	-6.533796e-102
654           	-4.573657e-102
655           	-3.201560e-102
656           	-2.241092e-102
657           	-1.568764e-102
658           	-1.098135e-102
659           	-7.686946e-103
660           	-5.380862e-103
661           	-3.766604e-103
662           	-2.636622e-103
663           	-1.845636e-103
664           	-1.291945e-103
665           	-9.043615e-104
666           	-6.330531e-104
667           	-4.431371e-104
668           	-3.101960e-104
669           	-2.171372e-104
670           	-1.519960e-104
671           	-1.063972e-104
672           	-7.447806e-105
673           	-5.213464e-105
674           	-3.649425e-105
675           	-2.554597e-105
676           	-1.788218e-105
677           	-1.251753e-105
678           	-8.762269e-106
679           	-6.133588e-106
680           	-4.293512e-106
681           	-3.005458e-106
682           	-2.103821e-106
683           	-1.472675e-106
684           	-1.030872e-106
685           	-7.216105e-107
686           	-5.051274e-107
687           	-3.535892e-107
688           	-2.475124e-107
689           	-1.732587e-107
690           	-1.212811e-107
691           	-8.489676e-108
692           	-5.942773e-108
693           	-4.159941e-108
694           	-2.911959e-108
695           	-2.038371e-108
696           	-1.426860e-108
697           	-9.988019e-109
698           	-6.991613e-109
699           	-4.894129e-109
700           	-3.425890e-109
701           	-2.398123e-109
702           	-1.678686e-109
703           	-1.175080e-109
704           	-8.225563e-110
705           	-5.757894e-110
706           	-4.030526e-110
707           	-2.821368e-110
708           	-1.974958e-110
709           	-1.382470e-110
710           	-9.677293e-111
711           	-6.774105e-111
712           	-4.741873e-111
713           	-3.319311e-111
714           	-2.323518e-111
715           	-1.626463e-111
716           	-1.138524e-111
717           	-7.969667e-112
718           	-5.578767e-112
719           	-3.905137e-112
720           	-2.733596e-112
721           	-1.913517e-112
722           	-1.339462e-112
723           	-9.376233e-113
724           	-6.563363e-113
725           	-4.594354e-113
726           	-3.216048e-113
727           	-2.251234e-113
728           	-1.575863e-113
729           	-1.103104e-113
730           	-7.721731e-114
731           	-5.405212e-114
732           	-3.783648e-114
733           	-2.648554e-114
734           	-1.853988e-114
735           	-1.297791e-114
736           	-9.084539e-115
737           	-6.359178e-115
738           	-4.451424e-115
739           	-3.115997e-115
740           	-2.181198e-115
741           	-1.526839e-115
742           	-1.068787e-115
743           	-7.481509e-116
744           	-5.237056e-116
745           	-3.665939e-116
746           	-2.566158e-116
747           	-1.796310e-116
748           	-1.257417e-116
749           	-8.801920e-117
750           	-6.161344e-117
751           	-4.312941e-117
752           	-3.019059e-117
753           	-2.113341e-117
754           	-1.479339e-117
755           	-1.035537e-117
756           	-7.248760e-118
757           	-5.074132e-118
758           	-3.551892e-118
759           	-2.486325e-118
760           	-1.740427e-118
761           	-1.218299e-118
762           	-8.528093e-119
763           	-5.969665e-119
764           	-4.178766e-119
765           	-2.925136e-119
766           	-2.047595e-119
767           	-1.433317e-119
768           	-1.003322e-119
769           	-7.023252e-120
770           	-4.916276e-120
771           	-3.441393e-120
772           	-2.408975e-120
773           	-1.686283e-120
774           	-1.180398e-120
775           	-8.262785e-121
776           	-5.783950e-121
777           	-4.048765e-121
778           	-2.834135e-121
779           	-1.983895e-121
780           	-1.388726e-121
781           	-9.721084e-122
782           	-6.804759e-122
783           	-4.763331e-122
784           	-3.334332e-122
785           	-2.334032e-122
786           	-1.633823e-122
787           	-1.143676e-122
788           	-8.005731e-123
789           	-5.604012e-123
790           	-3.922808e-123
791           	-2.745966e-123
792           	-1.922176e-123
793           	-1.345523e-123
794           	-9.418662e-124
795           	-6.593064e-124
796           	-4.615145e-124
797           	-3.230601e-124
798           	-2.261421e-124
799           	-1.582995e-124
800           	-1.108096e-124
801           	-7.756674e-125
802           	-5.429671e-125
803           	-3.800770e-125
804           	-2.660539e-125
805           	-1.862377e-125
806           	-1.303664e-125
807           	-9.125649e-126
808           	-6.387954e-126
809           	-4.471568e-126
810           	-3.130098e-126
811           	-2.191068e-126
812           	-1.533748e-126
813           	-1.073623e-126
814           	-7.515364e-127
815           	-5.260755e-127
816           	-3.682528e-127
817           	-2.577770e-127
818           	-1.804439e-127
819           	-1.263107e-127
820           	-8.841751e-128
821           	-6.189226e-128
822           	-4.332458e-128
823           	-3.032721e-128
824           	-2.122904e-128
825           	-1.486033e-128
826           	-1.040223e-128
827           	-7.281562e-129
828           	-5.097093e-129
829           	-3.567965e-129
830           	-2.497576e-129
831           	-1.748303e-129
832           	-1.223812e-129
833           	-8.566685e-130
834           	-5.996679e-130
835           	-4.197676e-130
836           	-2.938373e-130
837           	-2.056861e-130
838           	-1.439803e-130
839           	-1.007862e-130
840           	-7.055033e-131
841           	-4.938523e-131
842           	-3.456966e-131
843           	-2.419876e-131
844           	-1.693914e-131
845           	-1.185739e-131
846           	-8.300176e-132
847           	-5.810123e-132
848           	-4.067086e-132
849           	-2.846960e-132
850           	-1.992872e-132
851           	-1.395011e-132
852           	-9.765074e-133
853           	-6.835552e-133
854           	-4.784886e-133
855           	-3.349420e-133
856           	-2.344594e-133
857           	-1.641216e-133
858           	-1.148851e-133
859           	-8.041959e-134
860           	-5.629371e-134
861           	-3.940560e-134
862           	-2.758392e-134
863           	-1.930874e-134
864           	-1.351612e-134
865           	-9.461284e-135
866           	-6.622899e-135
867           	-4.636029e-135
868           	-3.245220e-135
869           	-2.271654e-135
870           	-1.590158e-135
871           	-1.113111e-135
872           	-7.791774e-136
873           	-5.454242e-136
874           	-3.817969e-136
875           	-2.672579e-136
876           	-1.870805e-136
877           	-1.309563e-136
878           	-9.166944e-137
879           	-6.416861e-137
880           	-4.491803e-137
881           	-3.144262e-137
882           	-2.200983e-137
883           	-1.540688e-137
884           	-1.078482e-137
885           	-7.549373e-138
886           	-5.284561e-138
887           	-3.699193e-138
888           	-2.589435e-138
889           	-1.812604e-138
890           	-1.268823e-138
891           	-8.881762e-139
892           	-6.217233e-139
893           	-4.352063e-139
894           	-3.046444e-139
895           	-2.132511e-139
896           	-1.492758e-139
897           	-1.044930e-139
898           	-7.314513e-140
899           	-5.120159e-140
900           	-3.584111e-140
901           	-2.508878e-140
902           	-1.756214e-140
903           	-1.229350e-140
904           	-8.605451e-141
905           	-6.023816e-141
906           	-4.216671e-141
907           	-2.951670e-141
908           	-2.066169e-141
909           	-1.446318e-141
910           	-1.012423e-141
911           	-7.086959e-142
912           	-4.960871e-142
913           	-3.472610e-142
914           	-2.430827e-142
915           	-1.701579e-142
916           	-1.191105e-142
917           	-8.337736e-143
918           	-5.836415e-143
919           	-4.085491e-143
920           	-2.859844e-143
921           	-2.001890e-143
922           	-1.401323e-143
923           	-9.809263e-144
924           	-6.866484e-144
925           	-4.806539e-144
926           	-3.364577e-144
927           	-2.355204e-144
928           	-1.648643e-144
929           	-1.154050e-144
930           	-8.078350e-145
931           	-5.654845e-145
932           	-3.958392e-145
933           	-2.770874e-145
934           	-1.939612e-145
935           	-1.357728e-145
936           	-9.504098e-146
937           	-6.652869e-146
938           	-4.657008e-146
939           	-3.259906e-146
940           	-2.281934e-146
941           	-1.597354e-146
942           	-1.118148e-146
943           	-7.827034e-147
944           	-5.478923e-147
945           	-3.835246e-147
946           	-2.684673e-147
947           	-1.879271e-147
948           	-1.315490e-147
949           	-9.208427e-148
950           	-6.445899e-148
951           	-4.512129e-148
952           	-3.158490e-148
953           	-2.210943e-148
954           	-1.547660e-148
955           	-1.083362e-148
956           	-7.583535e-149
957           	-5.308475e-149
958           	-3.715932e-149
959           	-2.601153e-149
960           	-1.820807e-149
961           	-1.274565e-149
962           	-8.921953e-150
963           	-6.245367e-150
964           	-4.371757e-150
965           	-3.060230e-150
966           	-2.142161e-150
967           	-1.499513e-150
968           	-1.049659e-150
969           	-7.347612e-151
970           	-5.143329e-151
971           	-3.600330e-151
972           	-2.520231e-151
973           	-1.764162e-151
974           	-1.234913e-151
975           	-8.644392e-152
976           	-6.051075e-152
977           	-4.235752e-152
978           	-2.965027e-152
979           	-2.075519e-152
980           	-1.452863e-152
981           	-1.017004e-152
982           	-7.119029e-153
983           	-4.983320e-153
984           	-3.488324e-153
985           	-2.441827e-153
986           	-1.709279e-153
987           	-1.196495e-153
988           	-8.375466e-154
989           	-5.862826e-154
990           	-4.103978e-154
991           	-2.872785e-154
992           	-2.010949e-154
993           	-1.407665e-154
994           	-9.853652e-155
995           	-6.897557e-155
996           	-4.828290e-155
997           	-3.379803e-155
998           	-2.365862e-155
999           	-1.656103e-155
1000          	-1.159272e-155
1001          	-8.114906e-156
1002          	-5.680434e-156
1003          	-3.976304e-156
1004          	-2.783413e-156
1005          	-1.948389e-156
1006          	-1.363872e-156
1007          	-9.547106e-157
1008          	-6.682974e-157
1009          	-4.678082e-157
1010          	-3.274657e-157
1011          	-2.292260e-157
1012          	-1.604582e-157
1013          	-1.123208e-157
1014          	-7.862453e-158
1015          	-5.503717e-158
1016          	-3.852602e-158
1017          	-2.696821e-158