# Region type : patch ent
# Faces  :    238
# Area   :    1.250000e-07
# Time        	areaAverage(p)
0             	0.000000e+00
1             	7.494257e+04
2             	6.509440e+04
3             	3.601920e+04
4             	6.951692e+03
5             	-1.409737e+04
6             	-2.364878e+04
7             	-2.369650e+04
8             	-1.746302e+04
9             	-8.531619e+03
10            	-2.594901e+02
11            	5.354582e+03
12            	7.712198e+03
13            	7.298650e+03
14            	5.173456e+03
15            	2.489748e+03
16            	1.611087e+02
17            	-1.297711e+03
18            	-1.777588e+03
19            	-1.482350e+03
20            	-7.498943e+02
21            	6.942974e+01
22            	7.162580e+02
23            	1.061185e+03
24            	1.104878e+03
25            	9.296057e+02
26            	6.507234e+02
27            	3.749595e+02
28            	1.741375e+02
29            	7.655907e+01
30            	7.321582e+01
31            	1.314860e+02
32            	2.134124e+02
33            	2.868314e+02
34            	3.312387e+02
35            	3.419872e+02
36            	3.246763e+02
37            	2.909675e+02
38            	2.535373e+02
39            	2.222114e+02
40            	2.021756e+02
41            	1.937947e+02
42            	1.940047e+02
43            	1.986222e+02
44            	2.037496e+02
45            	2.066204e+02
46            	2.058745e+02
47            	2.017890e+02
48            	1.953494e+02
49            	1.880714e+02
50            	1.812211e+02
51            	1.756369e+02
52            	1.715513e+02
53            	1.686685e+02
54            	1.665859e+02
55            	1.648402e+02
56            	1.630512e+02
57            	1.609351e+02
58            	1.585054e+02
59            	1.558994e+02
60            	1.531790e+02
61            	1.505050e+02
62            	1.479920e+02
63            	1.456907e+02
64            	1.436170e+02
65            	1.417161e+02
66            	1.399087e+02
67            	1.381601e+02
68            	1.364673e+02
69            	1.348209e+02
70            	1.331723e+02
71            	1.315247e+02
72            	1.299035e+02
73            	1.283342e+02
74            	1.268268e+02
75            	1.253756e+02
76            	1.239986e+02
77            	1.226479e+02
78            	1.213495e+02
79            	1.200910e+02
80            	1.188640e+02
81            	1.176689e+02
82            	1.165056e+02
83            	1.153586e+02
84            	1.142396e+02
85            	1.131541e+02
86            	1.120974e+02
87            	1.110666e+02
88            	1.100620e+02
89            	1.090801e+02
90            	1.081217e+02
91            	1.071822e+02
92            	1.062716e+02
93            	1.053842e+02
94            	1.045133e+02
95            	1.036605e+02
96            	1.028258e+02
97            	1.019988e+02
98            	1.012150e+02
99            	1.004215e+02
100           	9.964979e+01
101           	9.890445e+01
102           	9.817070e+01
103           	9.745208e+01
104           	9.674766e+01
105           	9.605788e+01
106           	9.538141e+01
107           	9.472618e+01
108           	9.407094e+01
109           	9.342702e+01
110           	9.279595e+01
111           	9.217782e+01
112           	9.157016e+01
113           	9.097623e+01
114           	9.039362e+01
115           	8.982211e+01
116           	8.925742e+01
117           	8.871632e+01
118           	8.816015e+01
119           	8.761393e+01
120           	8.708395e+01
121           	8.658087e+01
122           	8.606547e+01
123           	8.556124e+01
124           	8.506692e+01
125           	8.458100e+01
126           	8.410467e+01
127           	8.363774e+01
128           	8.317712e+01
129           	8.272122e+01
130           	8.227655e+01
131           	8.183199e+01
132           	8.139346e+01
133           	8.096311e+01
134           	8.053592e+01
135           	8.011984e+01
136           	7.971440e+01
137           	7.930495e+01
138           	7.890673e+01
139           	7.850913e+01
140           	7.813174e+01
141           	7.773582e+01
142           	7.736343e+01
143           	7.698906e+01
144           	7.661580e+01
145           	7.624714e+01
146           	7.588420e+01
147           	7.552803e+01
148           	7.517791e+01
149           	7.483297e+01
150           	7.449265e+01
151           	7.415620e+01
152           	7.382439e+01
153           	7.349640e+01
154           	7.317117e+01
155           	7.284936e+01
156           	7.252831e+01
157           	7.221290e+01
158           	7.190637e+01
159           	7.160576e+01
160           	7.130831e+01
161           	7.100992e+01
162           	7.071479e+01
163           	7.042370e+01
164           	7.013668e+01
165           	6.985288e+01
166           	6.958426e+01
167           	6.931528e+01
168           	6.902772e+01
169           	6.875317e+01
170           	6.847841e+01
171           	6.820833e+01
172           	6.794491e+01
173           	6.768466e+01
174           	6.742725e+01
175           	6.717637e+01
176           	6.692601e+01
177           	6.667933e+01
178           	6.643361e+01
179           	6.619087e+01
180           	6.594908e+01
181           	6.571124e+01
182           	6.547593e+01
183           	6.524309e+01
184           	6.501265e+01
185           	6.478329e+01
186           	6.456222e+01
187           	6.433736e+01
188           	6.411183e+01
189           	6.389608e+01
190           	6.368057e+01
191           	6.346629e+01
192           	6.325454e+01
193           	6.304443e+01
194           	6.283742e+01
195           	6.263201e+01
196           	6.242873e+01
197           	6.222754e+01
198           	6.202691e+01
199           	6.182947e+01
200           	6.163640e+01
201           	6.144621e+01
202           	6.125874e+01
203           	6.107260e+01
204           	6.088258e+01
205           	6.069574e+01
206           	6.050950e+01
207           	6.032756e+01
208           	6.015089e+01
209           	5.997211e+01
210           	5.979052e+01
211           	5.961163e+01
212           	5.943657e+01
213           	5.926775e+01
214           	5.909879e+01
215           	5.892960e+01
216           	5.876240e+01
217           	5.859771e+01
218           	5.843506e+01
219           	5.827413e+01
220           	5.811433e+01
221           	5.795574e+01
222           	5.779865e+01
223           	5.764309e+01
224           	5.748904e+01
225           	5.733646e+01
226           	5.718508e+01
227           	5.703545e+01
228           	5.688721e+01
229           	5.674044e+01
230           	5.659514e+01
231           	5.645132e+01
232           	5.630912e+01
233           	5.616831e+01
234           	5.602848e+01
235           	5.588978e+01
236           	5.575371e+01
237           	5.561853e+01
238           	5.548409e+01
239           	5.535113e+01
240           	5.521863e+01
241           	5.508779e+01
242           	5.495731e+01
243           	5.483088e+01
244           	5.469961e+01
245           	5.457142e+01
246           	5.444601e+01
247           	5.432265e+01
248           	5.420135e+01
249           	5.408309e+01
250           	5.396664e+01
251           	5.385298e+01
252           	5.373703e+01
253           	5.362062e+01
254           	5.350564e+01
255           	5.338792e+01
256           	5.326771e+01
257           	5.314905e+01
258           	5.303403e+01
259           	5.292010e+01
260           	5.281255e+01
261           	5.270149e+01
262           	5.259162e+01
263           	5.248366e+01
264           	5.237599e+01
265           	5.226978e+01
266           	5.216698e+01
267           	5.206437e+01
268           	5.196285e+01
269           	5.186243e+01
270           	5.176155e+01
271           	5.165767e+01
272           	5.155631e+01
273           	5.145800e+01
274           	5.136092e+01
275           	5.126463e+01
276           	5.116859e+01
277           	5.107330e+01
278           	5.098003e+01
279           	5.088720e+01
280           	5.079404e+01
281           	5.070118e+01
282           	5.060941e+01
283           	5.051848e+01
284           	5.042881e+01
285           	5.033999e+01
286           	5.025190e+01
287           	5.016462e+01
288           	5.007813e+01
289           	4.999364e+01
290           	4.991003e+01
291           	4.983265e+01
292           	4.975985e+01
293           	4.968155e+01
294           	4.960456e+01
295           	4.951625e+01
296           	4.942673e+01
297           	4.933847e+01
298           	4.925248e+01
299           	4.916839e+01
300           	4.908866e+01
301           	4.901020e+01
302           	4.893440e+01
303           	4.885996e+01
304           	4.878887e+01
305           	4.871576e+01
306           	4.863973e+01
307           	4.856163e+01
308           	4.848679e+01
309           	4.841236e+01
310           	4.833543e+01
311           	4.826098e+01
312           	4.819054e+01
313           	4.812137e+01
314           	4.805188e+01
315           	4.798313e+01
316           	4.791587e+01
317           	4.784907e+01
318           	4.778145e+01
319           	4.771196e+01
320           	4.764382e+01
321           	4.757780e+01
322           	4.751211e+01
323           	4.744707e+01
324           	4.738255e+01
325           	4.731846e+01
326           	4.725504e+01
327           	4.719238e+01
328           	4.713025e+01
329           	4.706821e+01
330           	4.700632e+01
331           	4.694460e+01
332           	4.688416e+01
333           	4.682440e+01
334           	4.676507e+01
335           	4.670791e+01
336           	4.664912e+01
337           	4.659100e+01
338           	4.653352e+01
339           	4.647684e+01
340           	4.642018e+01
341           	4.636174e+01
342           	4.630453e+01
343           	4.625180e+01
344           	4.619768e+01
345           	4.614031e+01
346           	4.608519e+01
347           	4.603183e+01
348           	4.597892e+01
349           	4.592750e+01
350           	4.587522e+01
351           	4.582371e+01
352           	4.577127e+01
353           	4.571929e+01
354           	4.566803e+01
355           	4.561905e+01
356           	4.556673e+01
357           	4.551488e+01
358           	4.546870e+01
359           	4.541893e+01
360           	4.536953e+01
361           	4.532030e+01
362           	4.527361e+01
363           	4.522713e+01
364           	4.518024e+01
365           	4.513170e+01
366           	4.508355e+01
367           	4.503678e+01
368           	4.499110e+01
369           	4.494605e+01
370           	4.490141e+01
371           	4.485762e+01
372           	4.481420e+01
373           	4.477087e+01
374           	4.472735e+01
375           	4.468371e+01
376           	4.464011e+01
377           	4.459723e+01
378           	4.455469e+01
379           	4.451261e+01
380           	4.447106e+01
381           	4.443003e+01
382           	4.438968e+01
383           	4.434967e+01
384           	4.431033e+01
385           	4.426894e+01
386           	4.423122e+01
387           	4.419464e+01
388           	4.415779e+01
389           	4.412023e+01
390           	4.408194e+01
391           	4.404122e+01
392           	4.400173e+01
393           	4.396305e+01
394           	4.392593e+01
395           	4.389117e+01
396           	4.385338e+01
397           	4.381710e+01
398           	4.378268e+01
399           	4.374880e+01
400           	4.371451e+01
401           	4.367952e+01
402           	4.364541e+01
403           	4.361042e+01
404           	4.357605e+01
405           	4.354277e+01
406           	4.350967e+01
407           	4.347711e+01
408           	4.344492e+01
409           	4.341271e+01
410           	4.338086e+01
411           	4.334910e+01
412           	4.331801e+01
413           	4.328701e+01
414           	4.325604e+01
415           	4.322566e+01
416           	4.319365e+01
417           	4.316469e+01
418           	4.313688e+01
419           	4.310822e+01
420           	4.307944e+01
421           	4.305177e+01
422           	4.302237e+01
423           	4.299262e+01
424           	4.296291e+01
425           	4.293335e+01
426           	4.290502e+01
427           	4.288024e+01
428           	4.285211e+01
429           	4.282446e+01
430           	4.279841e+01
431           	4.277106e+01
432           	4.274390e+01
433           	4.271717e+01
434           	4.269100e+01
435           	4.266513e+01
436           	4.263950e+01
437           	4.261433e+01
438           	4.258934e+01
439           	4.256432e+01
440           	4.253959e+01
441           	4.251491e+01
442           	4.249077e+01
443           	4.246662e+01
444           	4.244241e+01
445           	4.241807e+01
446           	4.239417e+01
447           	4.237100e+01
448           	4.234824e+01
449           	4.232567e+01
450           	4.230372e+01
451           	4.228543e+01
452           	4.226876e+01
453           	4.225089e+01
454           	4.223026e+01
455           	4.220699e+01
456           	4.218200e+01
457           	4.215784e+01
458           	4.213560e+01
459           	4.211503e+01
460           	4.209471e+01
461           	4.207488e+01
462           	4.205588e+01
463           	4.203603e+01
464           	4.201598e+01
465           	4.199565e+01
466           	4.197511e+01
467           	4.195515e+01
468           	4.193551e+01
469           	4.191642e+01
470           	4.189787e+01
471           	4.187921e+01
472           	4.186150e+01
473           	4.184431e+01
474           	4.182705e+01
475           	4.180976e+01
476           	4.179251e+01
477           	4.177586e+01
478           	4.175923e+01
479           	4.174255e+01
480           	4.172560e+01
481           	4.170875e+01
482           	4.169273e+01
483           	4.167723e+01
484           	4.166177e+01
485           	4.164626e+01
486           	4.163053e+01
487           	4.161538e+01
488           	4.160064e+01
489           	4.158623e+01
490           	4.157091e+01
491           	4.155759e+01
492           	4.154875e+01
493           	4.154059e+01
494           	4.153150e+01
495           	4.152017e+01
496           	4.150455e+01
497           	4.148666e+01
498           	4.146749e+01
499           	4.144924e+01
500           	4.143378e+01
501           	4.141841e+01
502           	4.140468e+01
503           	4.139160e+01
504           	4.137849e+01
505           	4.136557e+01
506           	4.135306e+01
507           	4.134086e+01
508           	4.132865e+01
509           	4.131596e+01
510           	4.130306e+01
511           	4.129002e+01
512           	4.127800e+01
513           	4.126622e+01
514           	4.125476e+01
515           	4.124315e+01
516           	4.123147e+01
517           	4.122014e+01
518           	4.120933e+01
519           	4.119857e+01
520           	4.118772e+01
521           	4.117655e+01
522           	4.116615e+01
523           	4.115591e+01
524           	4.114609e+01
525           	4.113631e+01
526           	4.112658e+01
527           	4.111718e+01
528           	4.110777e+01
529           	4.109860e+01
530           	4.108974e+01
531           	4.108117e+01
532           	4.107261e+01
533           	4.106532e+01
534           	4.105866e+01
535           	4.105164e+01
536           	4.104411e+01
537           	4.103800e+01
538           	4.102982e+01
539           	4.102119e+01
540           	4.101313e+01
541           	4.100503e+01
542           	4.099805e+01
543           	4.099306e+01
544           	4.098601e+01
545           	4.097848e+01
546           	4.097156e+01
547           	4.096527e+01
548           	4.095887e+01
549           	4.095345e+01
550           	4.094515e+01
551           	4.093657e+01
552           	4.092895e+01
553           	4.092122e+01
554           	4.091373e+01
555           	4.090592e+01
556           	4.089768e+01
557           	4.088944e+01
558           	4.088121e+01
559           	4.087289e+01
560           	4.086480e+01
561           	4.085685e+01
562           	4.084951e+01
563           	4.084216e+01
564           	4.083464e+01
565           	4.082681e+01
566           	4.081918e+01
567           	4.081204e+01
568           	4.080512e+01
569           	4.079800e+01
570           	4.079074e+01
571           	4.078338e+01
572           	4.077692e+01
573           	4.077035e+01
574           	4.076584e+01
575           	4.076494e+01
576           	4.076455e+01
577           	4.076375e+01
578           	4.076012e+01
579           	4.075323e+01
580           	4.074386e+01
581           	4.073313e+01
582           	4.072313e+01
583           	4.071585e+01
584           	4.070853e+01
585           	4.070263e+01
586           	4.069771e+01
587           	4.069396e+01
588           	4.069016e+01
589           	4.068606e+01
590           	4.068165e+01
591           	4.067695e+01
592           	4.067227e+01
593           	4.066758e+01
594           	4.066273e+01
595           	4.065794e+01
596           	4.065343e+01
597           	4.064968e+01
598           	4.064603e+01
599           	4.064221e+01
600           	4.063789e+01
601           	4.063340e+01
602           	4.062944e+01
603           	4.062578e+01
604           	4.062191e+01
605           	4.061782e+01
606           	4.061337e+01
607           	4.060938e+01
608           	4.060570e+01
609           	4.060213e+01
610           	4.059820e+01
611           	4.059406e+01
612           	4.059004e+01
613           	4.058611e+01
614           	4.058271e+01
615           	4.057849e+01
616           	4.057513e+01
617           	4.057269e+01
618           	4.056969e+01
619           	4.056591e+01
620           	4.056292e+01
621           	4.055712e+01
622           	4.055162e+01
623           	4.054681e+01
624           	4.054209e+01
625           	4.053745e+01
626           	4.053440e+01
627           	4.053000e+01
628           	4.052546e+01
629           	4.052064e+01
630           	4.051569e+01
631           	4.051061e+01
632           	4.050634e+01
633           	4.050223e+01
634           	4.049801e+01
635           	4.049332e+01
636           	4.048832e+01
637           	4.048350e+01
638           	4.047903e+01
639           	4.047442e+01
640           	4.046958e+01
641           	4.046430e+01
642           	4.045924e+01
643           	4.045408e+01
644           	4.044910e+01
645           	4.044336e+01
646           	4.043834e+01
647           	4.043667e+01
648           	4.043590e+01
649           	4.043317e+01
650           	4.042803e+01
651           	4.042171e+01
652           	4.041409e+01
653           	4.040604e+01
654           	4.039901e+01
655           	4.039059e+01
656           	4.038273e+01
657           	4.037642e+01
658           	4.037087e+01
659           	4.036538e+01
660           	4.035974e+01
661           	4.035372e+01
662           	4.034821e+01
663           	4.034256e+01
664           	4.033649e+01
665           	4.032986e+01
666           	4.032296e+01
667           	4.031636e+01
668           	4.031030e+01
669           	4.030405e+01
670           	4.029790e+01
671           	4.029147e+01
672           	4.028515e+01
673           	4.027875e+01
674           	4.027255e+01
675           	4.026618e+01
676           	4.025963e+01
677           	4.025318e+01
678           	4.024669e+01
679           	4.023988e+01
680           	4.023341e+01
681           	4.022827e+01
682           	4.022413e+01
683           	4.021951e+01
684           	4.021321e+01
685           	4.020716e+01
686           	4.019878e+01
687           	4.019011e+01
688           	4.018207e+01
689           	4.017426e+01
690           	4.016773e+01
691           	4.015962e+01
692           	4.015312e+01
693           	4.014799e+01
694           	4.014245e+01
695           	4.013640e+01
696           	4.012925e+01
697           	4.012171e+01
698           	4.011438e+01
699           	4.010701e+01
700           	4.009911e+01
701           	4.009136e+01
702           	4.008413e+01
703           	4.007740e+01
704           	4.007083e+01
705           	4.006453e+01
706           	4.005783e+01
707           	4.005119e+01
708           	4.004412e+01
709           	4.003677e+01
710           	4.003049e+01
711           	4.002243e+01
712           	4.001574e+01
713           	4.000938e+01
714           	4.000283e+01
715           	3.999556e+01
716           	3.998896e+01
717           	3.998038e+01
718           	3.997263e+01
719           	3.996584e+01
720           	3.995816e+01
721           	3.995015e+01
722           	3.994298e+01
723           	3.993608e+01
724           	3.993024e+01
725           	3.992122e+01
726           	3.991268e+01
727           	3.990486e+01
728           	3.989801e+01
729           	3.989060e+01
730           	3.988457e+01
731           	3.987611e+01
732           	3.986766e+01
733           	3.985945e+01
734           	3.985160e+01
735           	3.984337e+01
736           	3.983522e+01
737           	3.982752e+01
738           	3.981969e+01
739           	3.981159e+01
740           	3.980323e+01
741           	3.979453e+01
742           	3.978654e+01
743           	3.977885e+01
744           	3.977096e+01
745           	3.976292e+01
746           	3.975488e+01
747           	3.974733e+01
748           	3.973963e+01
749           	3.973163e+01
750           	3.972307e+01
751           	3.971432e+01
752           	3.970614e+01
753           	3.969828e+01
754           	3.969031e+01
755           	3.968206e+01
756           	3.967427e+01
757           	3.966507e+01
758           	3.965809e+01
759           	3.965160e+01
760           	3.964456e+01
761           	3.963655e+01
762           	3.962910e+01
763           	3.962105e+01
764           	3.961140e+01
765           	3.960183e+01
766           	3.959297e+01
767           	3.958462e+01
768           	3.957625e+01
769           	3.956826e+01
770           	3.956182e+01
771           	3.955358e+01
772           	3.954556e+01
773           	3.953712e+01
774           	3.952773e+01
775           	3.951788e+01
776           	3.950830e+01
777           	3.950001e+01
778           	3.949173e+01
779           	3.948323e+01
780           	3.947445e+01
781           	3.946549e+01
782           	3.945714e+01
783           	3.944875e+01
784           	3.944041e+01
785           	3.943197e+01
786           	3.942342e+01
787           	3.941516e+01
788           	3.940725e+01
789           	3.939916e+01
790           	3.939074e+01
791           	3.938189e+01
792           	3.937330e+01
793           	3.936468e+01
794           	3.935632e+01
795           	3.934787e+01
796           	3.933935e+01
797           	3.933102e+01
798           	3.932267e+01
799           	3.931526e+01
800           	3.931035e+01
801           	3.931079e+01
802           	3.931233e+01
803           	3.931068e+01
804           	3.930374e+01
805           	3.929312e+01
806           	3.927649e+01
807           	3.925964e+01
808           	3.924465e+01
809           	3.923187e+01
810           	3.922087e+01
811           	3.921230e+01
812           	3.920496e+01
813           	3.919782e+01
814           	3.919066e+01
815           	3.918207e+01
816           	3.917307e+01
817           	3.916384e+01
818           	3.915450e+01
819           	3.914530e+01
820           	3.913598e+01
821           	3.912658e+01
822           	3.911781e+01
823           	3.910931e+01
824           	3.910134e+01
825           	3.909314e+01
826           	3.908453e+01
827           	3.907605e+01
828           	3.906720e+01
829           	3.905816e+01
830           	3.904903e+01
831           	3.903992e+01
832           	3.903151e+01
833           	3.902321e+01
834           	3.901480e+01
835           	3.900609e+01
836           	3.899778e+01
837           	3.898963e+01
838           	3.898146e+01
839           	3.897283e+01
840           	3.896391e+01
841           	3.895478e+01
842           	3.894636e+01
843           	3.893819e+01
844           	3.893000e+01
845           	3.892199e+01
846           	3.891236e+01
847           	3.890488e+01
848           	3.889844e+01
849           	3.889151e+01
850           	3.888367e+01
851           	3.887583e+01
852           	3.886551e+01
853           	3.885497e+01
854           	3.884578e+01
855           	3.883725e+01
856           	3.882876e+01
857           	3.882176e+01
858           	3.881269e+01
859           	3.880294e+01
860           	3.879369e+01
861           	3.878441e+01
862           	3.877577e+01
863           	3.876743e+01
864           	3.875893e+01
865           	3.875038e+01
866           	3.874210e+01
867           	3.873443e+01
868           	3.872665e+01
869           	3.871818e+01
870           	3.870921e+01
871           	3.870019e+01
872           	3.869183e+01
873           	3.868388e+01
874           	3.867577e+01
875           	3.866748e+01
876           	3.865885e+01
877           	3.865065e+01
878           	3.864349e+01
879           	3.863538e+01
880           	3.862800e+01
881           	3.862098e+01
882           	3.861366e+01
883           	3.860625e+01
884           	3.859915e+01
885           	3.858943e+01
886           	3.857964e+01
887           	3.857106e+01
888           	3.856269e+01
889           	3.855450e+01
890           	3.854809e+01
891           	3.853985e+01
892           	3.853166e+01
893           	3.852378e+01
894           	3.851749e+01
895           	3.850897e+01
896           	3.850026e+01
897           	3.849247e+01
898           	3.848535e+01
899           	3.847769e+01
900           	3.847109e+01
901           	3.846184e+01
902           	3.845285e+01
903           	3.844476e+01
904           	3.843716e+01
905           	3.842925e+01
906           	3.842094e+01
907           	3.841316e+01
908           	3.840533e+01
909           	3.839780e+01
910           	3.839003e+01
911           	3.838219e+01
912           	3.837469e+01
913           	3.836742e+01
914           	3.836009e+01
915           	3.835286e+01
916           	3.834509e+01
917           	3.833784e+01
918           	3.833038e+01
919           	3.832271e+01
920           	3.831521e+01
921           	3.830813e+01
922           	3.830113e+01
923           	3.829361e+01
924           	3.828634e+01
925           	3.827884e+01
926           	3.827140e+01
927           	3.826452e+01
928           	3.825768e+01
929           	3.825070e+01
930           	3.824379e+01
931           	3.823582e+01
932           	3.822987e+01
933           	3.822501e+01
934           	3.821929e+01
935           	3.821252e+01
936           	3.820622e+01
937           	3.819776e+01
938           	3.818943e+01
939           	3.818212e+01
940           	3.817496e+01
941           	3.816795e+01
942           	3.816286e+01
943           	3.815567e+01
944           	3.814838e+01
945           	3.814161e+01
946           	3.813482e+01
947           	3.812825e+01
948           	3.812149e+01
949           	3.811437e+01
950           	3.810749e+01
951           	3.810075e+01
952           	3.809441e+01
953           	3.808829e+01
954           	3.808198e+01
955           	3.807559e+01
956           	3.806926e+01
957           	3.806339e+01
958           	3.805747e+01
959           	3.805141e+01
960           	3.804492e+01
961           	3.803834e+01
962           	3.803238e+01
963           	3.802675e+01
964           	3.802096e+01
965           	3.801494e+01
966           	3.800943e+01
967           	3.800304e+01
968           	3.799810e+01
969           	3.799396e+01
970           	3.798893e+01
971           	3.798307e+01
972           	3.797815e+01
973           	3.797051e+01
974           	3.796354e+01
975           	3.795781e+01
976           	3.795227e+01
977           	3.794712e+01
978           	3.794168e+01
979           	3.793586e+01
980           	3.793119e+01
981           	3.792421e+01
982           	3.791889e+01
983           	3.791447e+01
984           	3.791003e+01
985           	3.790496e+01
986           	3.789943e+01
987           	3.789406e+01
988           	3.789006e+01
989           	3.788349e+01
990           	3.787734e+01
991           	3.787206e+01
992           	3.786770e+01
993           	3.786355e+01
994           	3.785888e+01
995           	3.785358e+01
996           	3.784715e+01
997           	3.784170e+01
998           	3.783906e+01
999           	3.783729e+01
1000          	3.783448e+01
1001          	3.783030e+01
1002          	3.782609e+01
1003          	3.781943e+01
1004          	3.781244e+01
1005          	3.780565e+01
1006          	3.779960e+01
1007          	3.779457e+01
1008          	3.779015e+01
1009          	3.778594e+01
1010          	3.778205e+01
1011          	3.777786e+01
1012          	3.777399e+01
1013          	3.776982e+01
1014          	3.776531e+01
1015          	3.776037e+01
1016          	3.775562e+01
1017          	3.775137e+01
1018          	3.774734e+01
1019          	3.774311e+01
1020          	3.773868e+01
1021          	3.773406e+01
1022          	3.773020e+01
1023          	3.772653e+01
1024          	3.772282e+01
1025          	3.771962e+01
1026          	3.771476e+01
1027          	3.771114e+01
1028          	3.770857e+01
1029          	3.770561e+01
1030          	3.770218e+01
1031          	3.769772e+01
1032          	3.769314e+01
1033          	3.769014e+01
1034          	3.768548e+01
1035          	3.768106e+01
1036          	3.767800e+01
1037          	3.767827e+01
1038          	3.767550e+01
1039          	3.767120e+01
1040          	3.766603e+01
1041          	3.766083e+01
1042          	3.765628e+01
1043          	3.765231e+01
1044          	3.764859e+01
1045          	3.764518e+01
1046          	3.764215e+01
1047          	3.763988e+01
1048          	3.763752e+01
1049          	3.763484e+01
1050          	3.763160e+01
1051          	3.762816e+01
1052          	3.762526e+01
1053          	3.762266e+01
1054          	3.761990e+01
1055          	3.761696e+01
1056          	3.761370e+01
1057          	3.761093e+01
1058          	3.760849e+01
1059          	3.760619e+01
1060          	3.760455e+01
1061          	3.760126e+01
1062          	3.759902e+01
1063          	3.759750e+01
1064          	3.759578e+01
1065          	3.759361e+01
1066          	3.759059e+01