# Forces      
# CofR        : (0.000000e+00 0.000000e+00 0.000000e+00)
# Time        forces(pressure viscous)	moments(pressure viscous)
0             	((0.000000e+00 0.000000e+00 0.000000e+00) (5.955786e-02 3.663102e-05 -1.634050e-04)) ((0.000000e+00 0.000000e+00 0.000000e+00) (3.642640e-08 7.130113e-06 1.391643e-05))
1             	((1.377375e+01 -1.156478e-01 -1.438636e-03) (-2.577885e-01 3.808209e-04 -3.793469e-02)) ((1.247317e-05 1.625397e-03 4.179621e-03) (9.117185e-06 9.472620e-04 -6.259381e-05))
2             	((1.126256e+01 -1.060644e-01 1.383969e-01) (-2.998732e-01 4.440487e-04 -2.306346e-02)) ((-2.172441e-05 -1.657899e-03 2.833822e-03) (5.930914e-06 5.723208e-04 -7.301958e-05))
3             	((3.722085e+00 -4.205153e-02 1.428457e-01) (-2.743018e-01 5.085486e-04 -1.395160e-02)) ((-3.075988e-05 -2.632786e-03 5.240202e-04) (3.386140e-06 3.423463e-04 -6.527309e-05))
4             	((-1.012710e+00 -5.574742e-03 7.548272e-02) (-2.058841e-01 5.704849e-04 -1.058170e-02)) ((-1.821224e-05 -1.707015e-03 -7.632903e-04) (2.725326e-06 2.590066e-04 -4.676668e-05))
5             	((-2.000241e+00 3.669847e-03 1.237746e-02) (-1.333313e-01 4.872028e-04 -8.786533e-03)) ((-3.349718e-06 -4.298849e-04 -8.420529e-04) (2.274563e-06 2.160761e-04 -2.956649e-05))
6             	((-1.148167e+00 1.927958e-03 -1.504785e-02) (-9.043233e-02 2.919685e-04 -7.598815e-03)) ((3.611632e-06 2.538699e-04 -4.267628e-04) (1.964090e-06 1.865235e-04 -2.053399e-05))
7             	((-1.472772e-01 -1.328206e-03 -1.462297e-02) (-7.785226e-02 1.214996e-04 -6.486404e-03)) ((3.768543e-06 3.342706e-04 -5.386098e-05) (1.671751e-06 1.571590e-04 -1.834183e-05))
8             	((3.164342e-01 -2.878027e-03 -4.823713e-03) (-7.829216e-02 2.937573e-05 -5.422969e-03)) ((1.509504e-06 1.588852e-04 9.740885e-05) (1.391487e-06 1.287127e-04 -1.859216e-05))
9             	((3.051767e-01 -2.658239e-03 2.173330e-03) (-7.838544e-02 -2.849665e-06 -4.497929e-03)) ((-1.937336e-07 2.878625e-06 8.088450e-05) (1.146485e-06 1.043216e-04 -1.830729e-05))
10            	((1.226311e-01 -1.772776e-03 3.622737e-03) (-7.397746e-02 -1.341708e-05 -3.761388e-03)) ((-6.051239e-07 -4.762826e-05 1.145148e-05) (9.507061e-07 8.541053e-05 -1.687123e-05))
11            	((-1.604330e-02 -1.036094e-03 1.947063e-03) (-6.699110e-02 -2.555448e-05 -3.205314e-03)) ((-2.607191e-07 -2.732373e-05 -3.633264e-05) (8.038635e-07 7.151241e-05 -1.500829e-05))
12            	((-5.584792e-02 -6.952192e-04 1.309938e-05) (-6.054085e-02 -4.261161e-05 -2.789177e-03)) ((1.640915e-07 7.081414e-06 -4.605204e-05) (6.958698e-07 6.128576e-05 -1.347531e-05))
13            	((-3.456245e-02 -6.271970e-04 -9.470594e-04) (-5.615895e-02 -5.817659e-05 -2.468007e-03)) ((3.696625e-07 2.655347e-05 -3.349105e-05) (6.140793e-07 5.342423e-05 -1.250278e-05))
14            	((-2.690420e-03 -6.415490e-04 -1.081576e-03) (-5.363696e-02 -6.773796e-05 -2.209464e-03)) ((3.870384e-07 3.022836e-05 -1.814163e-05) (5.490596e-07 4.708132e-05 -1.194299e-05))
15            	((1.429244e-02 -6.431278e-04 -9.463714e-04) (-5.208061e-02 -7.183602e-05 -1.994944e-03)) ((3.489293e-07 2.767685e-05 -9.967842e-06) (4.954314e-07 4.181782e-05 -1.157403e-05))
16            	((1.551141e-02 -6.201997e-04 -8.943149e-04) (-5.078452e-02 -7.361663e-05 -1.814260e-03)) ((3.388215e-07 2.600729e-05 -9.248243e-06) (4.504649e-07 3.740959e-05 -1.126706e-05))
17            	((9.995883e-03 -5.894483e-04 -9.845826e-04) (-4.948590e-02 -7.552962e-05 -1.660765e-03)) ((3.675564e-07 2.694088e-05 -1.196450e-05) (4.125092e-07 3.370118e-05 -1.098793e-05))
18            	((5.199711e-03 -5.593562e-04 -1.129585e-03) (-4.821442e-02 -7.786975e-05 -1.529296e-03)) ((4.075515e-07 2.913414e-05 -1.440961e-05) (3.801636e-07 3.055880e-05 -1.073445e-05))
19            	((3.546596e-03 -5.248868e-04 -1.246579e-03) (-4.706863e-02 -7.985376e-05 -1.415505e-03)) ((4.344312e-07 3.105996e-05 -1.504082e-05) (3.521890e-07 2.786588e-05 -1.050659e-05))
20            	((4.089634e-03 -4.877173e-04 -1.310364e-03) (-4.609359e-02 -8.107307e-05 -1.315943e-03)) ((4.437769e-07 3.216603e-05 -1.428336e-05) (3.277028e-07 2.553193e-05 -1.030641e-05))
21            	((5.154059e-03 -4.569982e-04 -1.336581e-03) (-4.527012e-02 -8.201496e-05 -1.227988e-03)) ((4.438391e-07 3.265396e-05 -1.325075e-05) (3.061461e-07 2.349092e-05 -1.014289e-05))
22            	((5.784596e-03 -4.393736e-04 -1.349736e-03) (-4.455353e-02 -8.329159e-05 -1.149566e-03)) ((4.434757e-07 3.291954e-05 -1.267425e-05) (2.870770e-07 2.169225e-05 -1.002034e-05))
23            	((5.870362e-03 -4.307489e-04 -1.364918e-03) (-4.390726e-02 -8.486964e-05 -1.078924e-03)) ((4.455928e-07 3.322357e-05 -1.258068e-05) (2.699924e-07 2.009326e-05 -9.927454e-06))
24            	((5.689884e-03 -4.197423e-04 -1.386220e-03) (-4.331306e-02 -8.620097e-05 -1.014665e-03)) ((4.487457e-07 3.365083e-05 -1.258312e-05) (2.544151e-07 1.865916e-05 -9.844103e-06))
25            	((5.505682e-03 -3.991414e-04 -1.411494e-03) (-4.276498e-02 -8.701213e-05 -9.557617e-04)) ((4.512201e-07 3.417531e-05 -1.239390e-05) (2.400329e-07 1.736354e-05 -9.760530e-06))
26            	((5.417631e-03 -3.737142e-04 -1.436155e-03) (-4.226073e-02 -8.757770e-05 -9.014985e-04)) ((4.528032e-07 3.471696e-05 -1.208361e-05) (2.267208e-07 1.618759e-05 -9.682371e-06))
27            	((5.403309e-03 -3.514781e-04 -1.457571e-03) (-4.179708e-02 -8.830333e-05 -8.513544e-04)) ((4.543099e-07 3.521843e-05 -1.185071e-05) (2.144219e-07 1.511700e-05 -9.618749e-06))
28            	((5.406349e-03 -3.337945e-04 -1.475773e-03) (-4.136951e-02 -8.924513e-05 -8.048836e-04)) ((4.558042e-07 3.566720e-05 -1.173740e-05) (2.030315e-07 1.413917e-05 -9.569711e-06))
29            	((5.391690e-03 -3.152450e-04 -1.492459e-03) (-4.097333e-02 -9.011113e-05 -7.616780e-04)) ((4.567231e-07 3.609165e-05 -1.161969e-05) (1.923932e-07 1.324226e-05 -9.526428e-06))
30            	((5.353609e-03 -2.919152e-04 -1.509594e-03) (-4.060433e-02 -9.067053e-05 -7.213837e-04)) ((4.569354e-07 3.652941e-05 -1.139859e-05) (1.823767e-07 1.241603e-05 -9.481849e-06))
31            	((5.301848e-03 -2.656264e-04 -1.527335e-03) (-4.025898e-02 -9.101587e-05 -6.837380e-04)) ((4.568740e-07 3.698432e-05 -1.112090e-05) (1.729304e-07 1.165279e-05 -9.437158e-06))
32            	((5.246094e-03 -2.410284e-04 -1.544705e-03) (-3.993442e-02 -9.138014e-05 -6.485517e-04)) ((4.571298e-07 3.743285e-05 -1.089817e-05) (1.640484e-07 1.094696e-05 -9.397354e-06))
33            	((5.190999e-03 -2.205015e-04 -1.560509e-03) (-3.962848e-02 -9.184631e-05 -6.156461e-04)) ((4.576916e-07 3.784995e-05 -1.077061e-05) (1.557064e-07 1.029352e-05 -9.363865e-06))
34            	((5.136677e-03 -2.021965e-04 -1.574701e-03) (-3.933942e-02 -9.228440e-05 -5.848200e-04)) ((4.581743e-07 3.823600e-05 -1.067592e-05) (1.478376e-07 9.687025e-06 -9.332883e-06))
35            	((5.081377e-03 -1.840226e-04 -1.588050e-03) (-3.906571e-02 -9.255035e-05 -5.558757e-04)) ((4.584272e-07 3.860741e-05 -1.054975e-05) (1.403736e-07 9.122249e-06 -9.300349e-06))
36            	((5.024101e-03 -1.665882e-04 -1.601076e-03) (-3.880580e-02 -9.265961e-05 -5.286535e-04)) ((4.586853e-07 3.897349e-05 -1.040272e-05) (1.332845e-07 8.595094e-06 -9.266282e-06))
37            	((4.964297e-03 -1.520207e-04 -1.613709e-03) (-3.855824e-02 -9.273831e-05 -5.030371e-04)) ((4.593265e-07 3.932882e-05 -1.028937e-05) (1.265700e-07 8.102606e-06 -9.233532e-06))
38            	((4.902459e-03 -1.413154e-04 -1.625360e-03) (-3.832180e-02 -9.285486e-05 -4.789298e-04)) ((4.603256e-07 3.965907e-05 -1.023733e-05) (1.202259e-07 7.642321e-06 -9.203584e-06))
39            	((4.839366e-03 -1.333442e-04 -1.635878e-03) (-3.809555e-02 -9.295901e-05 -4.562309e-04)) ((4.613625e-07 3.995993e-05 -1.021807e-05) (1.142254e-07 7.211647e-06 -9.174978e-06))
40            	((4.775694e-03 -1.267152e-04 -1.645483e-03) (-3.787868e-02 -9.296498e-05 -4.348362e-04)) ((4.622862e-07 4.023859e-05 -1.019138e-05) (1.085344e-07 6.807916e-06 -9.145454e-06))
41            	((4.712072e-03 -1.212969e-04 -1.654456e-03) (-3.767046e-02 -9.285971e-05 -4.146582e-04)) ((4.631911e-07 4.050315e-05 -1.015450e-05) (1.031345e-07 6.428909e-06 -9.114613e-06))
42            	((4.648931e-03 -1.183317e-04 -1.662955e-03) (-3.747014e-02 -9.269895e-05 -3.956317e-04)) ((4.643243e-07 4.075552e-05 -1.013920e-05) (9.802528e-08 6.072994e-06 -9.083804e-06))
43            	((4.586048e-03 -1.185412e-04 -1.670978e-03) (-3.727707e-02 -9.252727e-05 -3.777006e-04)) ((4.657557e-07 4.099285e-05 -1.016406e-05) (9.320515e-08 5.738764e-06 -9.054074e-06))
44            	((4.523304e-03 -1.212851e-04 -1.678503e-03) (-3.709072e-02 -9.233331e-05 -3.608067e-04)) ((4.673781e-07 4.121458e-05 -1.021636e-05) (8.866145e-08 5.424720e-06 -9.025009e-06))
45            	((4.460755e-03 -1.253256e-04 -1.685726e-03) (-3.691063e-02 -9.207325e-05 -3.448884e-04)) ((4.690928e-07 4.142546e-05 -1.026944e-05) (8.437551e-08 5.129289e-06 -8.995466e-06))
46            	((4.398642e-03 -1.299919e-04 -1.692826e-03) (-3.673638e-02 -9.173423e-05 -3.298920e-04)) ((4.708635e-07 4.162982e-05 -1.031280e-05) (8.033461e-08 4.851124e-06 -8.965075e-06))
47            	((4.337080e-03 -1.354313e-04 -1.699849e-03) (-3.656756e-02 -9.134379e-05 -3.157756e-04)) ((4.727665e-07 4.182845e-05 -1.035764e-05) (7.653500e-08 4.589194e-06 -8.934497e-06))
48            	((4.276328e-03 -1.419337e-04 -1.706621e-03) (-3.640379e-02 -9.093395e-05 -3.025013e-04)) ((4.747968e-07 4.201827e-05 -1.041678e-05) (7.297424e-08 4.342616e-06 -8.904464e-06))
49            	((4.216121e-03 -1.492807e-04 -1.713210e-03) (-3.624475e-02 -9.050874e-05 -2.900299e-04)) ((4.769055e-07 4.219955e-05 -1.048644e-05) (6.964417e-08 4.110484e-06 -8.874993e-06))
50            	((4.156208e-03 -1.568540e-04 -1.719756e-03) (-3.609016e-02 -9.005028e-05 -2.783194e-04)) ((4.789703e-07 4.237450e-05 -1.055100e-05) (6.653132e-08 3.891858e-06 -8.845559e-06))
51            	((4.096634e-03 -1.644508e-04 -1.726317e-03) (-3.593978e-02 -8.955119e-05 -2.673308e-04)) ((4.808940e-07 4.254490e-05 -1.060151e-05) (6.362406e-08 3.685884e-06 -8.815896e-06))
52            	((4.037417e-03 -1.723600e-04 -1.732888e-03) (-3.579336e-02 -8.902373e-05 -2.570308e-04)) ((4.827304e-07 4.271144e-05 -1.064204e-05) (6.091582e-08 3.491869e-06 -8.786269e-06))
53            	((3.978423e-03 -1.809037e-04 -1.739408e-03) (-3.565065e-02 -8.848546e-05 -2.473898e-04)) ((4.845251e-07 4.287306e-05 -1.067935e-05) (5.840221e-08 3.309230e-06 -8.757116e-06))
54            	((3.919819e-03 -1.899989e-04 -1.745763e-03) (-3.551145e-02 -8.794106e-05 -2.383795e-04)) ((4.862392e-07 4.302857e-05 -1.071353e-05) (5.607716e-08 3.137395e-06 -8.728526e-06))
55            	((3.862052e-03 -1.992051e-04 -1.751883e-03) (-3.537559e-02 -8.738286e-05 -2.299698e-04)) ((4.877733e-07 4.317758e-05 -1.073733e-05) (5.393195e-08 2.975774e-06 -8.700265e-06))
56            	((3.805288e-03 -2.082823e-04 -1.757809e-03) (-3.524290e-02 -8.680594e-05 -2.221325e-04)) ((4.890807e-07 4.332138e-05 -1.074503e-05) (5.195792e-08 2.823808e-06 -8.672133e-06))
57            	((3.749420e-03 -2.173136e-04 -1.763577e-03) (-3.511323e-02 -8.621883e-05 -2.148426e-04)) ((4.901588e-07 4.346094e-05 -1.073764e-05) (5.014922e-08 2.681019e-06 -8.644247e-06))
58            	((3.694308e-03 -2.266098e-04 -1.769165e-03) (-3.498642e-02 -8.563254e-05 -2.080780e-04)) ((4.910587e-07 4.359637e-05 -1.072041e-05) (4.850154e-08 2.546992e-06 -8.616877e-06))
59            	((3.640096e-03 -2.363351e-04 -1.774504e-03) (-3.486236e-02 -8.505266e-05 -2.018169e-04)) ((4.918254e-07 4.372747e-05 -1.069591e-05) (4.700946e-08 2.421323e-06 -8.590139e-06))
60            	((3.587115e-03 -2.464404e-04 -1.779525e-03) (-3.474090e-02 -8.447656e-05 -1.960376e-04)) ((4.924714e-07 4.385383e-05 -1.066308e-05) (4.566634e-08 2.303602e-06 -8.563952e-06))
61            	((3.535594e-03 -2.567482e-04 -1.784211e-03) (-3.462196e-02 -8.389968e-05 -1.907188e-04)) ((4.929877e-07 4.397540e-05 -1.061954e-05) (4.446511e-08 2.193424e-06 -8.538184e-06))
62            	((3.485429e-03 -2.672397e-04 -1.788607e-03) (-3.450542e-02 -8.332350e-05 -1.858403e-04)) ((4.933969e-07 4.409251e-05 -1.056530e-05) (4.340009e-08 2.090429e-06 -8.512849e-06))
63            	((3.436545e-03 -2.778335e-04 -1.792728e-03) (-3.439119e-02 -8.275588e-05 -1.813839e-04)) ((4.937053e-07 4.420547e-05 -1.050277e-05) (4.246648e-08 1.994299e-06 -8.488093e-06))
64            	((3.389081e-03 -2.884667e-04 -1.796539e-03) (-3.427917e-02 -8.220174e-05 -1.773321e-04)) ((4.939155e-07 4.431398e-05 -1.043353e-05) (4.165923e-08 1.904728e-06 -8.463995e-06))
65            	((3.343282e-03 -2.991095e-04 -1.799982e-03) (-3.416930e-02 -8.166157e-05 -1.736677e-04)) ((4.940317e-07 4.441748e-05 -1.035736e-05) (4.097252e-08 1.821416e-06 -8.440525e-06))
66            	((3.299285e-03 -3.096129e-04 -1.803027e-03) (-3.406148e-02 -8.113446e-05 -1.703738e-04)) ((4.940426e-07 4.451548e-05 -1.027290e-05) (4.040007e-08 1.744064e-06 -8.417632e-06))
67            	((3.257080e-03 -3.198673e-04 -1.805705e-03) (-3.395566e-02 -8.062059e-05 -1.674352e-04)) ((4.939619e-07 4.460816e-05 -1.017932e-05) (3.993620e-08 1.672408e-06 -8.395297e-06))
68            	((3.216584e-03 -3.298049e-04 -1.808054e-03) (-3.385176e-02 -8.012240e-05 -1.648374e-04)) ((4.938275e-07 4.469603e-05 -1.007701e-05) (3.957595e-08 1.606204e-06 -8.373571e-06))
69            	((3.177744e-03 -3.394022e-04 -1.810097e-03) (-3.374973e-02 -7.964315e-05 -1.625662e-04)) ((4.936724e-07 4.477935e-05 -9.966784e-06) (3.931457e-08 1.545222e-06 -8.352504e-06))
70            	((3.140633e-03 -3.486068e-04 -1.811846e-03) (-3.364950e-02 -7.918330e-05 -1.606081e-04)) ((4.935016e-07 4.485815e-05 -9.848907e-06) (3.914695e-08 1.489234e-06 -8.332086e-06))
71            	((3.105212e-03 -3.574083e-04 -1.813329e-03) (-3.355103e-02 -7.874269e-05 -1.589500e-04)) ((4.933211e-07 4.493257e-05 -9.723309e-06) (3.906780e-08 1.438018e-06 -8.312280e-06))
72            	((3.071429e-03 -3.657638e-04 -1.814546e-03) (-3.345426e-02 -7.832154e-05 -1.575797e-04)) ((4.931257e-07 4.500245e-05 -9.589147e-06) (3.907206e-08 1.391366e-06 -8.293072e-06))
73            	((3.039255e-03 -3.735864e-04 -1.815482e-03) (-3.335915e-02 -7.792039e-05 -1.564860e-04)) ((4.929107e-07 4.506744e-05 -9.446334e-06) (3.915526e-08 1.349086e-06 -8.274470e-06))
74            	((3.008724e-03 -3.807907e-04 -1.816143e-03) (-3.326566e-02 -7.754079e-05 -1.556576e-04)) ((4.926648e-07 4.512726e-05 -9.294992e-06) (3.931319e-08 1.310995e-06 -8.256494e-06))
75            	((2.979883e-03 -3.873224e-04 -1.816547e-03) (-3.317375e-02 -7.718375e-05 -1.550839e-04)) ((4.923779e-07 4.518186e-05 -9.135281e-06) (3.954159e-08 1.276912e-06 -8.239149e-06))
76            	((2.952837e-03 -3.931781e-04 -1.816704e-03) (-3.308337e-02 -7.684862e-05 -1.547542e-04)) ((4.920520e-07 4.523138e-05 -8.967521e-06) (3.983592e-08 1.246663e-06 -8.222407e-06))
77            	((2.927654e-03 -3.983715e-04 -1.816648e-03) (-3.299450e-02 -7.653478e-05 -1.546579e-04)) ((4.916914e-07 4.527614e-05 -8.792206e-06) (4.019166e-08 1.220072e-06 -8.206243e-06))
78            	((2.904249e-03 -4.028474e-04 -1.816415e-03) (-3.290710e-02 -7.624201e-05 -1.547851e-04)) ((4.912968e-07 4.531636e-05 -8.609814e-06) (4.060477e-08 1.196972e-06 -8.190646e-06))
79            	((2.882509e-03 -4.065503e-04 -1.816024e-03) (-3.282114e-02 -7.597013e-05 -1.551261e-04)) ((4.908554e-07 4.535198e-05 -8.420843e-06) (4.107142e-08 1.177207e-06 -8.175614e-06))
80            	((2.862281e-03 -4.095233e-04 -1.815451e-03) (-3.273659e-02 -7.571862e-05 -1.556720e-04)) ((4.903579e-07 4.538268e-05 -8.226008e-06) (4.158798e-08 1.160626e-06 -8.161132e-06))
81            	((2.843450e-03 -4.117866e-04 -1.814664e-03) (-3.265343e-02 -7.548518e-05 -1.564143e-04)) ((4.897947e-07 4.540816e-05 -8.026022e-06) (4.215080e-08 1.147083e-06 -8.147165e-06))
82            	((2.826046e-03 -4.133674e-04 -1.813642e-03) (-3.257162e-02 -7.526764e-05 -1.573445e-04)) ((4.891698e-07 4.542844e-05 -7.821845e-06) (4.275640e-08 1.136431e-06 -8.133675e-06))
83            	((2.809969e-03 -4.143122e-04 -1.812394e-03) (-3.249113e-02 -7.506529e-05 -1.584546e-04)) ((4.884958e-07 4.544369e-05 -7.614513e-06) (4.340165e-08 1.128530e-06 -8.120643e-06))
84            	((2.795147e-03 -4.146750e-04 -1.810936e-03) (-3.241195e-02 -7.487683e-05 -1.597365e-04)) ((4.877913e-07 4.545418e-05 -7.405241e-06) (4.408346e-08 1.123244e-06 -8.108047e-06))
85            	((2.781539e-03 -4.144343e-04 -1.809270e-03) (-3.233405e-02 -7.470044e-05 -1.611824e-04)) ((4.870556e-07 4.546005e-05 -7.194780e-06) (4.479910e-08 1.120444e-06 -8.095852e-06))
86            	((2.769046e-03 -4.135747e-04 -1.807390e-03) (-3.225740e-02 -7.453435e-05 -1.627844e-04)) ((4.862797e-07 4.546149e-05 -6.984021e-06) (4.554593e-08 1.120005e-06 -8.084016e-06))
87            	((2.757598e-03 -4.120788e-04 -1.805297e-03) (-3.218198e-02 -7.437761e-05 -1.645345e-04)) ((4.854600e-07 4.545882e-05 -6.773666e-06) (4.632129e-08 1.121800e-06 -8.072500e-06))
88            	((2.747139e-03 -4.099561e-04 -1.802986e-03) (-3.210778e-02 -7.422971e-05 -1.664247e-04)) ((4.845914e-07 4.545229e-05 -6.564416e-06) (4.712250e-08 1.125706e-06 -8.061279e-06))
89            	((2.737566e-03 -4.072721e-04 -1.800462e-03) (-3.203477e-02 -7.408949e-05 -1.684470e-04)) ((4.836876e-07 4.544229e-05 -6.356950e-06) (4.794710e-08 1.131605e-06 -8.050321e-06))
90            	((2.728750e-03 -4.040975e-04 -1.797736e-03) (-3.196293e-02 -7.395582e-05 -1.705937e-04)) ((4.827612e-07 4.542924e-05 -6.152267e-06) (4.879268e-08 1.139375e-06 -8.039602e-06))
91            	((2.720590e-03 -4.004625e-04 -1.794809e-03) (-3.189224e-02 -7.382714e-05 -1.728566e-04)) ((4.818109e-07 4.541339e-05 -5.951065e-06) (4.965688e-08 1.148899e-06 -8.029089e-06))
92            	((2.712995e-03 -3.964035e-04 -1.791686e-03) (-3.182269e-02 -7.370259e-05 -1.752279e-04)) ((4.808414e-07 4.539508e-05 -5.753818e-06) (5.053761e-08 1.160062e-06 -8.018754e-06))
93            	((2.705873e-03 -3.919483e-04 -1.788374e-03) (-3.175425e-02 -7.358134e-05 -1.776999e-04)) ((4.798564e-07 4.537477e-05 -5.560658e-06) (5.143289e-08 1.172749e-06 -8.008572e-06))
94            	((2.699138e-03 -3.870978e-04 -1.784875e-03) (-3.168691e-02 -7.346294e-05 -1.802648e-04)) ((4.788542e-07 4.535289e-05 -5.371684e-06) (5.234084e-08 1.186848e-06 -7.998522e-06))
95            	((2.692704e-03 -3.818261e-04 -1.781207e-03) (-3.162064e-02 -7.334756e-05 -1.829154e-04)) ((4.778324e-07 4.532988e-05 -5.186972e-06) (5.325969e-08 1.202253e-06 -7.988588e-06))
96            	((2.686454e-03 -3.761140e-04 -1.777388e-03) (-3.155542e-02 -7.323546e-05 -1.856442e-04)) ((4.767887e-07 4.530595e-05 -5.006676e-06) (5.418781e-08 1.218856e-06 -7.978754e-06))
97            	((2.680297e-03 -3.699424e-04 -1.773439e-03) (-3.149125e-02 -7.312704e-05 -1.884440e-04)) ((4.757171e-07 4.528131e-05 -4.830769e-06) (5.512372e-08 1.236554e-06 -7.969005e-06))
98            	((2.674152e-03 -3.632869e-04 -1.769379e-03) (-3.142809e-02 -7.302302e-05 -1.913078e-04)) ((4.746144e-07 4.525617e-05 -4.659016e-06) (5.606595e-08 1.255245e-06 -7.959327e-06))
99            	((2.667935e-03 -3.561667e-04 -1.765231e-03) (-3.136594e-02 -7.292362e-05 -1.942288e-04)) ((4.734868e-07 4.523076e-05 -4.491525e-06) (5.701305e-08 1.274832e-06 -7.949711e-06))
100           	((2.661543e-03 -3.486251e-04 -1.761011e-03) (-3.130476e-02 -7.282884e-05 -1.972006e-04)) ((4.723458e-07 4.520522e-05 -4.328250e-06) (5.796370e-08 1.295227e-06 -7.940149e-06))
101           	((2.654913e-03 -3.407359e-04 -1.756742e-03) (-3.124455e-02 -7.273827e-05 -2.002168e-04)) ((4.712008e-07 4.517960e-05 -4.168688e-06) (5.891674e-08 1.316343e-06 -7.930631e-06))
102           	((2.647983e-03 -3.325948e-04 -1.752453e-03) (-3.118529e-02 -7.265129e-05 -2.032712e-04)) ((4.700613e-07 4.515389e-05 -4.012453e-06) (5.987121e-08 1.338099e-06 -7.921144e-06))
103           	((2.640705e-03 -3.242491e-04 -1.748163e-03) (-3.112695e-02 -7.256790e-05 -2.063581e-04)) ((4.689339e-07 4.512808e-05 -3.859357e-06) (6.082628e-08 1.360419e-06 -7.911683e-06))
104           	((2.633035e-03 -3.157214e-04 -1.743898e-03) (-3.106953e-02 -7.248825e-05 -2.094724e-04)) ((4.678259e-07 4.510216e-05 -3.709157e-06) (6.178124e-08 1.383233e-06 -7.902244e-06))
105           	((2.624943e-03 -3.069859e-04 -1.739665e-03) (-3.101299e-02 -7.241249e-05 -2.126092e-04)) ((4.667370e-07 4.507609e-05 -3.561471e-06) (6.273560e-08 1.406477e-06 -7.892822e-06))
106           	((2.616390e-03 -2.980344e-04 -1.735487e-03) (-3.095733e-02 -7.234094e-05 -2.157647e-04)) ((4.656697e-07 4.504988e-05 -3.415860e-06) (6.368880e-08 1.430092e-06 -7.883417e-06))
107           	((2.607343e-03 -2.888636e-04 -1.731389e-03) (-3.090253e-02 -7.227382e-05 -2.189354e-04)) ((4.646261e-07 4.502354e-05 -3.272022e-06) (6.464028e-08 1.454028e-06 -7.874025e-06))
108           	((2.597758e-03 -2.795156e-04 -1.727372e-03) (-3.084857e-02 -7.221091e-05 -2.221181e-04)) ((4.636083e-07 4.499691e-05 -3.129887e-06) (6.558962e-08 1.478236e-06 -7.864642e-06))
109           	((2.587587e-03 -2.700326e-04 -1.723431e-03) (-3.079543e-02 -7.215224e-05 -2.253100e-04)) ((4.626199e-07 4.496989e-05 -2.989298e-06) (6.653662e-08 1.502674e-06 -7.855268e-06))
110           	((2.576794e-03 -2.604548e-04 -1.719563e-03) (-3.074310e-02 -7.209733e-05 -2.285088e-04)) ((4.616668e-07 4.494246e-05 -2.849964e-06) (6.748106e-08 1.527308e-06 -7.845900e-06))
111           	((2.565370e-03 -2.507706e-04 -1.715771e-03) (-3.069157e-02 -7.204556e-05 -2.317121e-04)) ((4.607486e-07 4.491468e-05 -2.711756e-06) (6.842274e-08 1.552105e-06 -7.836538e-06))
112           	((2.553343e-03 -2.409538e-04 -1.712051e-03) (-3.064080e-02 -7.199686e-05 -2.349179e-04)) ((4.598640e-07 4.488656e-05 -2.574520e-06) (6.936161e-08 1.577039e-06 -7.827178e-06))
113           	((2.540754e-03 -2.310439e-04 -1.708399e-03) (-3.059080e-02 -7.195111e-05 -2.381242e-04)) ((4.590149e-07 4.485801e-05 -2.438022e-06) (7.029762e-08 1.602084e-06 -7.817814e-06))
114           	((2.527632e-03 -2.210701e-04 -1.704801e-03) (-3.054155e-02 -7.190821e-05 -2.413290e-04)) ((4.581975e-07 4.482904e-05 -2.301880e-06) (7.123069e-08 1.627222e-06 -7.808447e-06))
115           	((2.513975e-03 -2.110627e-04 -1.701235e-03) (-3.049303e-02 -7.186801e-05 -2.445313e-04)) ((4.574108e-07 4.479972e-05 -2.166232e-06) (7.216073e-08 1.652433e-06 -7.799073e-06))
116           	((2.499781e-03 -2.010423e-04 -1.697682e-03) (-3.044523e-02 -7.183044e-05 -2.477296e-04)) ((4.566503e-07 4.477013e-05 -2.031302e-06) (7.308764e-08 1.677703e-06 -7.789691e-06))
117           	((2.485089e-03 -1.910663e-04 -1.694118e-03) (-3.039813e-02 -7.179431e-05 -2.509228e-04)) ((4.559144e-07 4.474041e-05 -1.897689e-06) (7.401131e-08 1.703019e-06 -7.780285e-06))
118           	((2.469946e-03 -1.811796e-04 -1.690536e-03) (-3.035172e-02 -7.175891e-05 -2.541101e-04)) ((4.552018e-07 4.471085e-05 -1.766136e-06) (7.493178e-08 1.728370e-06 -7.770846e-06))
119           	((2.454350e-03 -1.713918e-04 -1.686934e-03) (-3.030600e-02 -7.172403e-05 -2.572909e-04)) ((4.545102e-07 4.468175e-05 -1.637225e-06) (7.584908e-08 1.753749e-06 -7.761367e-06))
120           	((2.438290e-03 -1.617177e-04 -1.683297e-03) (-3.026093e-02 -7.168958e-05 -2.604641e-04)) ((4.538383e-07 4.465328e-05 -1.511515e-06) (7.676325e-08 1.779145e-06 -7.751841e-06))
121           	((2.421787e-03 -1.521900e-04 -1.679597e-03) (-3.021652e-02 -7.165505e-05 -2.636289e-04)) ((4.531832e-07 4.462560e-05 -1.389564e-06) (7.767417e-08 1.804546e-06 -7.742254e-06))
122           	((2.404871e-03 -1.428637e-04 -1.675812e-03) (-3.017276e-02 -7.161990e-05 -2.667848e-04)) ((4.525419e-07 4.459876e-05 -1.271901e-06) (7.858197e-08 1.829944e-06 -7.732596e-06))
123           	((2.387552e-03 -1.337569e-04 -1.671927e-03) (-3.012962e-02 -7.158361e-05 -2.699315e-04)) ((4.519094e-07 4.457282e-05 -1.159050e-06) (7.948663e-08 1.855329e-06 -7.722853e-06))
124           	((2.369840e-03 -1.248762e-04 -1.667930e-03) (-3.008710e-02 -7.154575e-05 -2.730687e-04)) ((4.512870e-07 4.454790e-05 -1.051682e-06) (8.038810e-08 1.880695e-06 -7.713012e-06))
125           	((2.351760e-03 -1.162296e-04 -1.663804e-03) (-3.004519e-02 -7.150593e-05 -2.761962e-04)) ((4.506703e-07 4.452399e-05 -9.503260e-07) (8.128627e-08 1.906031e-06 -7.703062e-06))
126           	((2.333325e-03 -1.078504e-04 -1.659538e-03) (-3.000388e-02 -7.146363e-05 -2.793138e-04)) ((4.500618e-07 4.450117e-05 -8.556949e-07) (8.218095e-08 1.931328e-06 -7.692987e-06))
127           	((2.314545e-03 -9.976524e-05 -1.655127e-03) (-2.996316e-02 -7.141839e-05 -2.824212e-04)) ((4.494628e-07 4.447940e-05 -7.682057e-07) (8.307202e-08 1.956579e-06 -7.682775e-06))
128           	((2.295429e-03 -9.196303e-05 -1.650577e-03) (-2.992302e-02 -7.137007e-05 -2.855186e-04)) ((4.488734e-07 4.445865e-05 -6.880642e-07) (8.395930e-08 1.981773e-06 -7.672415e-06))
129           	((2.276013e-03 -8.443597e-05 -1.645894e-03) (-2.988345e-02 -7.131863e-05 -2.886059e-04)) ((4.482968e-07 4.443894e-05 -6.157095e-07) (8.484271e-08 2.006902e-06 -7.661899e-06))
130           	((2.256336e-03 -7.720815e-05 -1.641082e-03) (-2.984444e-02 -7.126390e-05 -2.916832e-04)) ((4.477355e-07 4.442013e-05 -5.516553e-07) (8.572209e-08 2.031960e-06 -7.651217e-06))
131           	((2.236414e-03 -7.024076e-05 -1.636143e-03) (-2.980598e-02 -7.120592e-05 -2.947505e-04)) ((4.471867e-07 4.440209e-05 -4.957374e-07) (8.659725e-08 2.056938e-06 -7.640360e-06))
132           	((2.216270e-03 -6.350751e-05 -1.631077e-03) (-2.976807e-02 -7.114494e-05 -2.978080e-04)) ((4.466435e-07 4.438458e-05 -4.478039e-07) (8.746803e-08 2.081832e-06 -7.629325e-06))
133           	((2.195954e-03 -5.703578e-05 -1.625883e-03) (-2.973070e-02 -7.108094e-05 -3.008556e-04)) ((4.461045e-07 4.436729e-05 -4.078025e-07) (8.833434e-08 2.106635e-06 -7.618106e-06))
134           	((2.175507e-03 -5.081340e-05 -1.620578e-03) (-2.969385e-02 -7.101414e-05 -3.038933e-04)) ((4.455726e-07 4.435007e-05 -3.752605e-07) (8.919611e-08 2.131343e-06 -7.606700e-06))
135           	((2.154964e-03 -4.478181e-05 -1.615176e-03) (-2.965754e-02 -7.094527e-05 -3.069211e-04)) ((4.450442e-07 4.433266e-05 -3.495533e-07) (9.005334e-08 2.155951e-06 -7.595111e-06))
136           	((2.134350e-03 -3.890145e-05 -1.609699e-03) (-2.962174e-02 -7.087540e-05 -3.099392e-04)) ((4.445162e-07 4.431484e-05 -3.299814e-07) (9.090596e-08 2.180458e-06 -7.583350e-06))
137           	((2.113716e-03 -3.314094e-05 -1.604171e-03) (-2.958645e-02 -7.080535e-05 -3.129479e-04)) ((4.439890e-07 4.429642e-05 -3.156083e-07) (9.175406e-08 2.204865e-06 -7.571425e-06))
138           	((2.093108e-03 -2.748089e-05 -1.598616e-03) (-2.955167e-02 -7.073597e-05 -3.159476e-04)) ((4.434631e-07 4.427721e-05 -3.054897e-07) (9.259765e-08 2.229173e-06 -7.559346e-06))
139           	((2.072541e-03 -2.187314e-05 -1.593056e-03) (-2.951740e-02 -7.066814e-05 -3.189385e-04)) ((4.429361e-07 4.425710e-05 -2.987440e-07) (9.343675e-08 2.253386e-06 -7.547126e-06))
140           	((2.052077e-03 -1.625254e-05 -1.587511e-03) (-2.948362e-02 -7.060286e-05 -3.219209e-04)) ((4.424073e-07 4.423605e-05 -2.941701e-07) (9.427141e-08 2.277507e-06 -7.534779e-06))
141           	((2.031757e-03 -1.058569e-05 -1.582007e-03) (-2.945033e-02 -7.054119e-05 -3.248949e-04)) ((4.418785e-07 4.421401e-05 -2.905785e-07) (9.510160e-08 2.301540e-06 -7.522324e-06))
142           	((2.011631e-03 -4.820179e-06 -1.576564e-03) (-2.941754e-02 -7.048421e-05 -3.278605e-04)) ((4.413466e-07 4.419094e-05 -2.868754e-07) (9.592730e-08 2.325488e-06 -7.509783e-06))
143           	((1.991740e-03 1.084614e-06 -1.571187e-03) (-2.938523e-02 -7.043298e-05 -3.308173e-04)) ((4.408031e-07 4.416663e-05 -2.821048e-07) (9.674838e-08 2.349355e-06 -7.497177e-06))
144           	((1.972095e-03 7.150737e-06 -1.565902e-03) (-2.935340e-02 -7.038850e-05 -3.337656e-04)) ((4.402500e-07 4.414101e-05 -2.751866e-07) (9.756484e-08 2.373146e-06 -7.484524e-06))
145           	((1.952694e-03 1.343041e-05 -1.560733e-03) (-2.932205e-02 -7.035170e-05 -3.367052e-04)) ((4.396844e-07 4.411414e-05 -2.649181e-07) (9.837663e-08 2.396865e-06 -7.471846e-06))
146           	((1.933560e-03 1.992327e-05 -1.555696e-03) (-2.929117e-02 -7.032293e-05 -3.396358e-04)) ((4.391021e-07 4.408607e-05 -2.507331e-07) (9.918368e-08 2.420514e-06 -7.459162e-06))
147           	((1.914722e-03 2.656872e-05 -1.550801e-03) (-2.926076e-02 -7.030236e-05 -3.425571e-04)) ((4.385043e-07 4.405688e-05 -2.326359e-07) (9.998595e-08 2.444097e-06 -7.446487e-06))
148           	((1.896181e-03 3.332693e-05 -1.546047e-03) (-2.923082e-02 -7.028980e-05 -3.454690e-04)) ((4.378903e-07 4.402657e-05 -2.102920e-07) (1.007834e-07 2.467620e-06 -7.433834e-06))
149           	((1.877950e-03 4.018994e-05 -1.541444e-03) (-2.920133e-02 -7.028506e-05 -3.483709e-04)) ((4.372535e-07 4.399520e-05 -1.836289e-07) (1.015760e-07 2.491088e-06 -7.421215e-06))
150           	((1.860066e-03 4.710959e-05 -1.536992e-03) (-2.917231e-02 -7.028772e-05 -3.512625e-04)) ((4.365888e-07 4.396283e-05 -1.529886e-07) (1.023638e-07 2.514506e-06 -7.408639e-06))
151           	((1.842524e-03 5.404034e-05 -1.532685e-03) (-2.914374e-02 -7.029745e-05 -3.541436e-04)) ((4.358926e-07 4.392946e-05 -1.185839e-07) (1.031469e-07 2.537878e-06 -7.396113e-06))
152           	((1.825325e-03 6.095641e-05 -1.528519e-03) (-2.911561e-02 -7.031357e-05 -3.570138e-04)) ((4.351607e-07 4.389515e-05 -8.080883e-08) (1.039251e-07 2.561207e-06 -7.383638e-06))
153           	((1.808469e-03 6.784318e-05 -1.524493e-03) (-2.908794e-02 -7.033528e-05 -3.598721e-04)) ((4.343871e-07 4.386003e-05 -4.014417e-08) (1.046985e-07 2.584494e-06 -7.371215e-06))
154           	((1.791912e-03 7.468110e-05 -1.520588e-03) (-2.906070e-02 -7.036198e-05 -3.627181e-04)) ((4.335688e-07 4.382413e-05 3.152595e-09) (1.054672e-07 2.607741e-06 -7.358846e-06))
155           	((1.775630e-03 8.150051e-05 -1.516791e-03) (-2.903391e-02 -7.039297e-05 -3.655513e-04)) ((4.326986e-07 4.378746e-05 4.877335e-08) (1.062312e-07 2.630949e-06 -7.346530e-06))
156           	((1.759635e-03 8.836819e-05 -1.513094e-03) (-2.900754e-02 -7.042801e-05 -3.683709e-04)) ((4.317626e-07 4.375015e-05 9.665466e-08) (1.069905e-07 2.654116e-06 -7.334266e-06))