# Forces      
# CofR        : (0.000000e+00 0.000000e+00 0.000000e+00)
# Time        forces(pressure viscous)	moments(pressure viscous)
0             	((0.000000e+00 0.000000e+00 0.000000e+00) (0.000000e+00 0.000000e+00 0.000000e+00)) ((0.000000e+00 0.000000e+00 0.000000e+00) (0.000000e+00 0.000000e+00 0.000000e+00))
1             	((-1.414131e+00 8.480840e-02 2.586125e-03) (4.527065e-03 -6.835522e-05 -3.736872e-04)) ((-8.346308e-06 -1.812418e-04 -1.212549e-03) (4.174908e-08 -1.390786e-06 1.335643e-06))
2             	((-1.199264e+00 7.072300e-02 -1.087817e-03) (8.801193e-02 -1.233566e-03 1.952525e-04)) ((-6.186019e-06 -9.872160e-05 -1.025324e-03) (-2.188127e-08 2.305781e-06 2.442667e-05))
3             	((-6.615670e-01 3.728383e-02 -2.210027e-03) (1.043379e-01 -1.373817e-03 5.679132e-04)) ((-2.782836e-06 -2.042558e-06 -5.024391e-04) (-5.314646e-08 -6.483305e-07 2.905602e-05))
4             	((-1.032759e-01 3.617924e-03 -8.856810e-04) (8.280685e-02 -9.659629e-04 5.134191e-04)) ((-5.376784e-08 6.173135e-05 -2.493430e-06) (-2.859704e-08 -2.218221e-06 2.316920e-05))
5             	((3.045620e-01 -1.921466e-02 5.227410e-04) (4.614903e-02 -4.236934e-04 1.608876e-04)) ((1.767581e-06 8.297992e-05 3.264018e-04) (3.845492e-08 -1.793199e-06 1.325997e-05))
6             	((4.908830e-01 -2.966568e-02 1.198369e-03) (1.202044e-02 3.688694e-05 -2.013590e-04)) ((2.692382e-06 7.685980e-05 4.347854e-04) (1.020301e-07 -1.074024e-06 4.493117e-06))
7             	((4.827898e-01 -2.872091e-02 1.283124e-03) (-8.382162e-03 2.161166e-04 -3.025050e-04)) ((2.632230e-06 5.290349e-05 3.864057e-04) (1.071158e-07 -1.195321e-06 -8.966860e-07))
8             	((3.504500e-01 -2.084784e-02 1.373554e-03) (-1.369372e-02 1.830235e-04 -1.681525e-04)) ((1.848447e-06 2.147691e-05 2.489060e-04) (6.091761e-08 -2.065087e-06 -2.547559e-06))
9             	((1.650444e-01 -1.007179e-02 1.633367e-03) (-6.533141e-03 2.051275e-05 1.316488e-05)) ((6.839782e-07 -1.051519e-05 8.747899e-05) (8.403475e-09 -2.739842e-06 -1.259886e-06))
10            	((-3.917036e-03 -5.178853e-04 1.954418e-03) (5.614363e-03 -1.499343e-04 1.163247e-04)) ((-4.132864e-07 -3.390918e-05 -4.544535e-05) (-2.066840e-08 -2.685663e-06 1.519031e-06))
11            	((-1.162941e-01 5.835661e-03 2.239901e-03) (1.805691e-02 -2.921829e-04 1.293060e-04)) ((-1.175719e-06 -4.558437e-05 -1.236885e-04) (-2.335841e-08 -2.054768e-06 4.540409e-06))
12            	((-1.598283e-01 8.446984e-03 2.287360e-03) (2.778564e-02 -3.862596e-04 9.227419e-05)) ((-1.486686e-06 -4.535068e-05 -1.444254e-04) (-1.056799e-08 -1.245772e-06 6.970659e-06))
13            	((-1.453585e-01 7.979590e-03 2.058006e-03) (3.337548e-02 -4.292242e-04 4.250299e-05)) ((-1.386784e-06 -3.634348e-05 -1.215835e-04) (6.493687e-09 -5.440690e-07 8.354087e-06))
14            	((-9.583551e-02 5.584786e-03 1.613429e-03) (3.472347e-02 -4.271711e-04 -3.943089e-06)) ((-1.025148e-06 -2.341804e-05 -7.673889e-05) (2.174094e-08 -5.333028e-08 8.620709e-06))
15            	((-3.659623e-02 2.585202e-03 1.040439e-03) (3.274458e-02 -3.937421e-04 -4.180910e-05)) ((-5.588306e-07 -1.061388e-05 -2.975578e-05) (3.260520e-08 2.428161e-07 7.995501e-06))
16            	((1.266702e-02 -1.058106e-05 4.563508e-04) (2.892177e-02 -3.460433e-04 -6.735396e-05)) ((-1.290574e-07 -8.484904e-07 5.597713e-06) (3.781299e-08 3.802777e-07 6.868628e-06))
17            	((4.138118e-02 -1.647537e-03 -2.937062e-05) (2.478693e-02 -2.995867e-04 -7.724215e-05)) ((1.729767e-07 4.522643e-06 2.342310e-05) (3.718315e-08 3.861658e-07 5.652497e-06))
18            	((4.807132e-02 -2.199501e-03 -3.226060e-04) (2.148262e-02 -2.645821e-04 -7.094119e-05)) ((3.090704e-07 5.519216e-06 2.476551e-05) (3.165513e-08 2.937606e-07 4.659676e-06))
19            	((3.792181e-02 -1.904247e-03 -3.933419e-04) (1.953757e-02 -2.443319e-04 -5.311098e-05)) ((2.905299e-07 3.056455e-06 1.469498e-05) (2.345229e-08 1.532570e-07 4.043097e-06))
20            	((1.901874e-02 -1.105134e-03 -2.806219e-04) (1.891343e-02 -2.367935e-04 -3.149709e-05)) ((1.720045e-07 -1.116971e-06 1.121221e-08) (1.522051e-08 1.885592e-08 3.804056e-06))
21            	((-5.691153e-04 -1.970597e-04 -6.246237e-05) (1.921536e-02 -2.372235e-04 -1.294325e-05)) ((1.610756e-08 -5.407308e-06 -1.357162e-05) (8.836746e-09 -7.247530e-08 3.840742e-06))
22            	((-1.515621e-02 5.479854e-04 1.735131e-04) (1.992340e-02 -2.403445e-04 -1.382408e-06)) ((-1.216863e-07 -8.582108e-06 -2.242201e-05) (5.119746e-09 -1.070815e-07 4.011638e-06))
23            	((-2.222524e-02 9.685303e-04 3.514661e-04) (2.057499e-02 -2.418232e-04 2.288888e-06)) ((-2.077865e-07 -1.013101e-05 -2.559725e-05) (3.907144e-09 -8.991775e-08 4.185627e-06))
24            	((-2.218264e-02 1.060021e-03 4.325814e-04) (2.086992e-02 -2.391259e-04 -6.415365e-07)) ((-2.308405e-07 -1.004138e-05 -2.390632e-05) (4.518815e-09 -3.601048e-08 4.274544e-06))
25            	((-1.728773e-02 9.024307e-04 4.143109e-04) (2.070136e-02 -2.317598e-04 -7.766808e-06)) ((-2.010638e-07 -8.764363e-06 -1.937524e-05) (6.055276e-09 3.552986e-08 4.243139e-06))
26            	((-1.040502e-02 6.102110e-04 3.238953e-04) (2.012445e-02 -2.206800e-04 -1.637308e-05)) ((-1.401727e-07 -6.967746e-06 -1.416094e-05) (7.742950e-09 1.064080e-07 4.103621e-06))
27            	((-4.086688e-03 3.048527e-04 2.004492e-04) (1.929319e-02 -2.077449e-04 -2.419840e-05)) ((-7.237414e-08 -5.249155e-06 -9.889202e-06) (9.057811e-09 1.634984e-07 3.897241e-06))
28            	((9.979892e-05 6.818594e-05 8.286368e-05) (1.838964e-02 -1.949529e-04 -2.978760e-05)) ((-1.721237e-08 -4.030488e-06 -7.410742e-06) (9.795339e-09 2.000445e-07 3.673553e-06))
29            	((1.658430e-03 -5.662990e-05 1.453024e-06) (1.756455e-02 -1.838140e-04 -3.271811e-05)) ((1.549536e-08 -3.438009e-06 -6.745251e-06) (9.989094e-09 2.159458e-07 3.473598e-06))
30            	((1.018735e-03 -8.096601e-05 -3.274511e-05) (1.690434e-02 -1.750186e-04 -3.344508e-05)) ((2.353250e-08 -3.452814e-06 -7.472244e-06) (9.838015e-09 2.162311e-07 3.320609e-06))
31            	((-9.359134e-04 -3.136351e-05 -2.395404e-05) (1.642670e-02 -1.684526e-04 -3.291458e-05)) ((1.277320e-08 -3.868553e-06 -8.856660e-06) (9.599449e-09 2.088405e-07 3.219346e-06))
32            	((-3.242950e-03 5.938463e-05 1.325608e-05) (1.609803e-02 -1.635651e-04 -3.213733e-05)) ((-8.125620e-09 -4.424029e-06 -1.019296e-05) (9.453710e-09 2.013814e-07 3.158989e-06))
33            	((-5.118213e-03 1.464475e-04 6.032805e-05) (1.585801e-02 -1.595341e-04 -3.187081e-05)) ((-2.961980e-08 -4.915659e-06 -1.109021e-05) (9.480379e-09 1.991912e-07 3.121521e-06))
34            	((-6.147995e-03 2.050252e-04 1.003819e-04) (1.564408e-02 -1.555605e-04 -3.248974e-05)) ((-4.573177e-08 -5.220394e-06 -1.138275e-05) (9.678169e-09 2.045439e-07 3.089670e-06))
35            	((-6.292486e-03 2.269585e-04 1.232026e-04) (1.540978e-02 -1.511723e-04 -3.399037e-05)) ((-5.326099e-08 -5.294522e-06 -1.112932e-05) (9.992841e-09 2.170826e-07 3.051126e-06))
36            	((-5.774790e-03 2.174563e-04 1.260708e-04) (1.513281e-02 -1.462754e-04 -3.609908e-05)) ((-5.202967e-08 -5.156849e-06 -1.052035e-05) (1.033199e-08 2.344415e-07 3.000481e-06))
37            	((-4.936216e-03 1.893820e-04 1.123072e-04) (1.481358e-02 -1.410687e-04 -3.842951e-05)) ((-4.455630e-08 -4.885294e-06 -9.784222e-06) (1.060344e-08 2.533698e-07 2.938560e-06))
38            	((-4.066743e-03 1.490937e-04 8.975057e-05) (1.446689e-02 -1.358324e-04 -4.062483e-05)) ((-3.454650e-08 -4.592442e-06 -9.156829e-06) (1.076027e-08 2.709732e-07 2.870409e-06))
39            	((-3.416797e-03 1.137609e-04 6.547038e-05) (1.411400e-02 -1.308556e-04 -4.247914e-05)) ((-2.495025e-08 -4.336325e-06 -8.713366e-06) (1.080771e-08 2.855892e-07 2.802380e-06))
40            	((-3.063278e-03 8.664809e-05 4.605675e-05) (1.377480e-02 -1.263429e-04 -4.389115e-05)) ((-1.804794e-08 -4.172916e-06 -8.497800e-06) (1.076268e-08 2.964596e-07 2.739412e-06))
41            	((-2.997560e-03 7.256104e-05 3.463173e-05) (1.346201e-02 -1.223415e-04 -4.491387e-05)) ((-1.446942e-08 -4.101440e-06 -8.440561e-06) (1.066383e-08 3.040877e-07 2.684149e-06))
42            	((-3.126414e-03 6.972780e-05 3.139623e-05) (1.318034e-02 -1.187951e-04 -4.566291e-05)) ((-1.393300e-08 -4.106522e-06 -8.465995e-06) (1.054076e-08 3.095728e-07 2.636487e-06))
43            	((-3.335920e-03 7.488507e-05 3.418069e-05) (1.292730e-02 -1.155707e-04 -4.626800e-05)) ((-1.527034e-08 -4.152800e-06 -8.495509e-06) (1.041052e-08 3.141113e-07 2.594670e-06))
44            	((-3.523525e-03 8.343092e-05 3.981146e-05) (1.269604e-02 -1.125302e-04 -4.682891e-05)) ((-1.720594e-08 -4.205442e-06 -8.476128e-06) (1.027743e-08 3.185880e-07 2.556304e-06))
45            	((-3.625024e-03 9.125479e-05 4.526045e-05) (1.247838e-02 -1.095742e-04 -4.739561e-05)) ((-1.871069e-08 -4.239092e-06 -8.388397e-06) (1.013712e-08 3.234430e-07 2.519354e-06))
46            	((-3.623097e-03 9.611197e-05 4.820594e-05) (1.226743e-02 -1.066657e-04 -4.796911e-05)) ((-1.916358e-08 -4.239268e-06 -8.240742e-06) (9.981100e-09 3.286684e-07 2.482679e-06))
47            	((-3.529847e-03 9.682435e-05 4.816960e-05) (1.205893e-02 -1.038175e-04 -4.851584e-05)) ((-1.860037e-08 -4.210346e-06 -8.060509e-06) (9.802344e-09 3.338737e-07 2.446071e-06))
48            	((-3.381643e-03 9.379299e-05 4.525671e-05) (1.185140e-02 -1.010646e-04 -4.899991e-05)) ((-1.718870e-08 -4.158011e-06 -7.874717e-06) (9.601881e-09 3.385935e-07 2.409949e-06))
49            	((-3.219060e-03 8.804982e-05 4.042677e-05) (1.164572e-02 -9.844330e-05 -4.938696e-05)) ((-1.539343e-08 -4.095814e-06 -7.706603e-06) (9.383638e-09 3.423490e-07 2.375000e-06))
50            	((-3.074892e-03 8.174395e-05 3.490411e-05) (1.144404e-02 -9.597498e-05 -4.965660e-05)) ((-1.359496e-08 -4.033166e-06 -7.563429e-06) (9.153956e-09 3.448575e-07 2.341765e-06))
51            	((-2.966424e-03 7.620011e-05 2.977368e-05) (1.124872e-02 -9.365723e-05 -4.980299e-05)) ((-1.209786e-08 -3.978430e-06 -7.445704e-06) (8.915314e-09 3.460541e-07 2.310425e-06))
52            	((-2.896411e-03 7.226119e-05 2.570084e-05) (1.106147e-02 -9.146414e-05 -4.983432e-05)) ((-1.102467e-08 -3.934882e-06 -7.345990e-06) (8.668710e-09 3.461258e-07 2.280826e-06))
53            	((-2.855919e-03 6.981372e-05 2.287137e-05) (1.088304e-02 -8.936012e-05 -4.976647e-05)) ((-1.033868e-08 -3.902604e-06 -7.256630e-06) (8.413731e-09 3.454017e-07 2.252632e-06))
54            	((-2.831547e-03 6.879597e-05 2.110345e-05) (1.071320e-02 -8.731717e-05 -4.961848e-05)) ((-9.899849e-09 -3.877156e-06 -7.168559e-06) (8.149423e-09 3.442446e-07 2.225517e-06))
55            	((-2.808579e-03 6.827194e-05 1.994523e-05) (1.055100e-02 -8.532296e-05 -4.940719e-05)) ((-9.584700e-09 -3.856547e-06 -7.079235e-06) (7.875849e-09 3.429420e-07 2.199277e-06))
56            	((-2.778786e-03 6.808896e-05 1.891481e-05) (1.039523e-02 -8.338102e-05 -4.914730e-05)) ((-9.245955e-09 -3.834818e-06 -6.983618e-06) (7.596132e-09 3.416621e-07 2.173887e-06))
57            	((-2.736329e-03 6.761057e-05 1.770293e-05) (1.024472e-02 -8.150626e-05 -4.884816e-05)) ((-8.788271e-09 -3.809460e-06 -6.885210e-06) (7.313844e-09 3.403976e-07 2.149402e-06))
58            	((-2.683269e-03 6.686193e-05 1.606021e-05) (1.009861e-02 -7.971381e-05 -4.851975e-05)) ((-8.156677e-09 -3.778313e-06 -6.785706e-06) (7.033953e-09 3.390590e-07 2.125943e-06))
59            	((-2.623825e-03 6.584122e-05 1.394787e-05) (9.956473e-03 -7.801369e-05 -4.816647e-05)) ((-7.354953e-09 -3.741710e-06 -6.687523e-06) (6.759833e-09 3.374791e-07 2.103573e-06))
60            	((-2.561988e-03 6.450852e-05 1.145960e-05) (9.818169e-03 -7.640333e-05 -4.779033e-05)) ((-6.437483e-09 -3.702191e-06 -6.592635e-06) (6.493911e-09 3.355260e-07 2.082261e-06))
61            	((-2.503238e-03 6.313045e-05 8.732599e-06) (9.683780e-03 -7.486945e-05 -4.739180e-05)) ((-5.403135e-09 -3.660684e-06 -6.501245e-06) (6.236282e-09 3.331568e-07 2.061881e-06))
62            	((-2.449052e-03 6.162697e-05 5.951906e-06) (9.553462e-03 -7.339330e-05 -4.696707e-05)) ((-4.313223e-09 -3.620212e-06 -6.413795e-06) (5.983552e-09 3.303909e-07 2.042253e-06))
63            	((-2.400146e-03 6.013957e-05 3.241383e-06) (9.427286e-03 -7.195657e-05 -4.651439e-05)) ((-3.199651e-09 -3.581922e-06 -6.329454e-06) (5.732894e-09 3.273415e-07 2.023219e-06))
64            	((-2.356221e-03 5.892096e-05 6.738123e-07) (9.305251e-03 -7.055042e-05 -4.603257e-05)) ((-2.091811e-09 -3.545928e-06 -6.247330e-06) (5.481293e-09 3.241378e-07 2.004685e-06))
65            	((-2.315416e-03 5.795290e-05 -1.722617e-06) (9.187236e-03 -6.917498e-05 -4.552281e-05)) ((-1.002901e-09 -3.511801e-06 -6.166909e-06) (5.227097e-09 3.208872e-07 1.986639e-06))
66            	((-2.275955e-03 5.719945e-05 -3.967160e-06) (9.073020e-03 -6.783619e-05 -4.499055e-05)) ((5.419820e-11 -3.478798e-06 -6.087983e-06) (4.971181e-09 3.176528e-07 1.969139e-06))
67            	((-2.236593e-03 5.663335e-05 -6.107860e-06) (8.962342e-03 -6.654296e-05 -4.444383e-05)) ((1.071408e-09 -3.446079e-06 -6.010407e-06) (4.716426e-09 3.144398e-07 1.952270e-06))
68            	((-2.196661e-03 5.619099e-05 -8.200000e-06) (8.854948e-03 -6.530265e-05 -4.389123e-05)) ((2.049250e-09 -3.412965e-06 -5.934048e-06) (4.466516e-09 3.112086e-07 1.936098e-06))
69            	((-2.156091e-03 5.579321e-05 -1.029392e-05) (8.750617e-03 -6.411746e-05 -4.334002e-05)) ((2.995248e-09 -3.379125e-06 -5.858681e-06) (4.224796e-09 3.079055e-07 1.920640e-06))
70            	((-2.115262e-03 5.539699e-05 -1.242590e-05) (8.649183e-03 -6.298373e-05 -4.279448e-05)) ((3.915048e-09 -3.344632e-06 -5.784115e-06) (3.993126e-09 3.044901e-07 1.905857e-06))
71            	((-2.074807e-03 5.503789e-05 -1.462053e-05) (8.550527e-03 -6.189407e-05 -4.225522e-05)) ((4.808487e-09 -3.309803e-06 -5.710156e-06) (3.771416e-09 3.009530e-07 1.891664e-06))
72            	((-2.035497e-03 5.476849e-05 -1.687992e-05) (8.454577e-03 -6.084018e-05 -4.171985e-05)) ((5.669935e-09 -3.275168e-06 -5.636674e-06) (3.557904e-09 2.973189e-07 1.877963e-06))
73            	((-1.997473e-03 5.458593e-05 -1.918517e-05) (8.361274e-03 -5.981501e-05 -4.118445e-05)) ((6.493753e-09 -3.241117e-06 -5.563860e-06) (3.350197e-09 2.936336e-07 1.864670e-06))
74            	((-1.960724e-03 5.448592e-05 -2.150876e-05) (8.270547e-03 -5.881405e-05 -4.064597e-05)) ((7.273769e-09 -3.207825e-06 -5.491856e-06) (3.146211e-09 2.899531e-07 1.851739e-06))
75            	((-1.924905e-03 5.436298e-05 -2.381802e-05) (8.182309e-03 -5.783527e-05 -4.010304e-05)) ((8.007710e-09 -3.175388e-06 -5.420709e-06) (2.944624e-09 2.863206e-07 1.839166e-06))
76            	((-1.890173e-03 5.437642e-05 -2.609490e-05) (8.096473e-03 -5.688066e-05 -3.955689e-05)) ((8.670377e-09 -3.143571e-06 -5.350552e-06) (2.745496e-09 2.827578e-07 1.826976e-06))
77            	((-1.856286e-03 5.451066e-05 -2.832396e-05) (8.012953e-03 -5.595433e-05 -3.901020e-05)) ((9.260300e-09 -3.112102e-06 -5.281405e-06) (2.549803e-09 2.792590e-07 1.815204e-06))
78            	((-1.823041e-03 5.475476e-05 -3.050213e-05) (7.931655e-03 -5.505896e-05 -3.846705e-05)) ((9.776257e-09 -3.080820e-06 -5.213221e-06) (2.359103e-09 2.758024e-07 1.803874e-06))
79            	((-1.790304e-03 5.508232e-05 -3.263619e-05) (7.852484e-03 -5.419517e-05 -3.793141e-05)) ((1.022462e-08 -3.049637e-06 -5.145903e-06) (2.174848e-09 2.723640e-07 1.792986e-06))
80            	((-1.758024e-03 5.546061e-05 -3.473935e-05) (7.775350e-03 -5.336103e-05 -3.740593e-05)) ((1.061709e-08 -3.018554e-06 -5.079329e-06) (1.997863e-09 2.689263e-07 1.782517e-06))
81            	((-1.726214e-03 5.586567e-05 -3.682573e-05) (7.700174e-03 -5.255281e-05 -3.689149e-05)) ((1.096483e-08 -2.987655e-06 -5.013436e-06) (1.828066e-09 2.654853e-07 1.772424e-06))
82            	((-1.694922e-03 5.628488e-05 -3.890465e-05) (7.626885e-03 -5.176623e-05 -3.638729e-05)) ((1.127692e-08 -2.957051e-06 -4.948224e-06) (1.664564e-09 2.620525e-07 1.762661e-06))
83            	((-1.664193e-03 5.671656e-05 -4.097742e-05) (7.555421e-03 -5.099767e-05 -3.589159e-05)) ((1.155852e-08 -2.926838e-06 -4.883762e-06) (1.505988e-09 2.586466e-07 1.753187e-06))
84            	((-1.633964e-03 5.717963e-05 -4.303547e-05) (7.485720e-03 -5.024535e-05 -3.540259e-05)) ((1.180183e-08 -2.897199e-06 -4.820559e-06) (1.351294e-09 2.552870e-07 1.743981e-06))
85            	((-1.604368e-03 5.765669e-05 -4.506893e-05) (7.417727e-03 -4.950873e-05 -3.491946e-05)) ((1.201286e-08 -2.868060e-06 -4.758181e-06) (1.200026e-09 2.519880e-07 1.735035e-06))
86            	((-1.575367e-03 5.816939e-05 -4.706517e-05) (7.351391e-03 -4.878865e-05 -3.444229e-05)) ((1.218817e-08 -2.839380e-06 -4.696856e-06) (1.052259e-09 2.487473e-07 1.726350e-06))
87            	((-1.546883e-03 5.872523e-05 -4.901511e-05) (7.286657e-03 -4.808661e-05 -3.397236e-05)) ((1.232541e-08 -2.811135e-06 -4.636774e-06) (9.086531e-10 2.455531e-07 1.717934e-06))
88            	((-1.518933e-03 5.933550e-05 -5.091435e-05) (7.223471e-03 -4.740388e-05 -3.351154e-05)) ((1.242177e-08 -2.783395e-06 -4.578077e-06) (7.700196e-10 2.423896e-07 1.709796e-06))
89            	((-1.491947e-03 6.014794e-05 -5.277088e-05) (7.161798e-03 -4.674222e-05 -3.306160e-05)) ((1.247584e-08 -2.755923e-06 -4.520278e-06) (6.370114e-10 2.392415e-07 1.701931e-06))
90            	((-1.465003e-03 6.081217e-05 -5.457044e-05) (7.101586e-03 -4.610021e-05 -3.262324e-05)) ((1.250216e-08 -2.729491e-06 -4.464316e-06) (5.100229e-10 2.360943e-07 1.694326e-06))
91            	((-1.438454e-03 6.142813e-05 -5.632301e-05) (7.042766e-03 -4.547393e-05 -3.219753e-05)) ((1.251241e-08 -2.703655e-06 -4.409633e-06) (3.893320e-10 2.329571e-07 1.686969e-06))
92            	((-1.412231e-03 6.200993e-05 -5.802855e-05) (6.985298e-03 -4.486171e-05 -3.178364e-05)) ((1.250804e-08 -2.678425e-06 -4.356258e-06) (2.743345e-10 2.298302e-07 1.679840e-06))
93            	((-1.386312e-03 6.256453e-05 -5.968406e-05) (6.929133e-03 -4.426214e-05 -3.138075e-05)) ((1.248751e-08 -2.653844e-06 -4.304223e-06) (1.645445e-10 2.267225e-07 1.672922e-06))
94            	((-1.360761e-03 6.310695e-05 -6.128632e-05) (6.874232e-03 -4.367426e-05 -3.098815e-05)) ((1.245667e-08 -2.629751e-06 -4.253406e-06) (5.954138e-11 2.236430e-07 1.666205e-06))
95            	((-1.335604e-03 6.366461e-05 -6.282999e-05) (6.820557e-03 -4.309821e-05 -3.060538e-05)) ((1.241297e-08 -2.606113e-06 -4.203874e-06) (-4.103724e-11 2.205949e-07 1.659685e-06))
96            	((-1.310900e-03 6.424398e-05 -6.431029e-05) (6.768077e-03 -4.253463e-05 -3.023235e-05)) ((1.235492e-08 -2.582963e-06 -4.155635e-06) (-1.372568e-10 2.175786e-07 1.653362e-06))
97            	((-1.286640e-03 6.483699e-05 -6.572509e-05) (6.716761e-03 -4.198407e-05 -2.986918e-05)) ((1.228465e-08 -2.560289e-06 -4.108693e-06) (-2.291143e-10 2.145902e-07 1.647240e-06))
98            	((-1.262794e-03 6.542309e-05 -6.707392e-05) (6.666576e-03 -4.144666e-05 -2.951609e-05)) ((1.220552e-08 -2.538113e-06 -4.063048e-06) (-3.165981e-10 2.116252e-07 1.641323e-06))
99            	((-1.239337e-03 6.598152e-05 -6.835922e-05) (6.617492e-03 -4.092198e-05 -2.917322e-05)) ((1.212266e-08 -2.516437e-06 -4.018662e-06) (-3.996272e-10 2.086813e-07 1.635607e-06))
100           	((-1.216219e-03 6.650284e-05 -6.958485e-05) (6.569476e-03 -4.040923e-05 -2.884044e-05)) ((1.203928e-08 -2.495260e-06 -3.975523e-06) (-4.782069e-10 2.057588e-07 1.630088e-06))
101           	((-1.193667e-03 6.701327e-05 -7.075961e-05) (6.522503e-03 -3.990754e-05 -2.851739e-05)) ((1.196455e-08 -2.474344e-06 -3.933213e-06) (-5.526603e-10 2.028601e-07 1.624755e-06))
102           	((-1.171231e-03 6.747176e-05 -7.187899e-05) (6.476542e-03 -3.941603e-05 -2.820310e-05)) ((1.188883e-08 -2.454052e-06 -3.892339e-06) (-6.234880e-10 1.999848e-07 1.619599e-06))
103           	((-1.148923e-03 6.788937e-05 -7.294770e-05) (6.431546e-03 -3.893354e-05 -2.789741e-05)) ((1.181349e-08 -2.434332e-06 -3.852818e-06) (-6.908265e-10 1.971430e-07 1.614618e-06))
104           	((-1.126788e-03 6.827787e-05 -7.396906e-05) (6.387481e-03 -3.845946e-05 -2.759982e-05)) ((1.173920e-08 -2.415142e-06 -3.814527e-06) (-7.549324e-10 1.943394e-07 1.609810e-06))
105           	((-1.104955e-03 6.863788e-05 -7.494633e-05) (6.344322e-03 -3.799353e-05 -2.730981e-05)) ((1.166925e-08 -2.396426e-06 -3.777221e-06) (-8.161248e-10 1.915757e-07 1.605172e-06))
106           	((-1.083468e-03 6.897534e-05 -7.588130e-05) (6.302054e-03 -3.753572e-05 -2.702690e-05)) ((1.160451e-08 -2.378133e-06 -3.740757e-06) (-8.746317e-10 1.888494e-07 1.600701e-06))
107           	((-1.062364e-03 6.928925e-05 -7.677413e-05) (6.260657e-03 -3.708606e-05 -2.675087e-05)) ((1.154541e-08 -2.360224e-06 -3.705005e-06) (-9.305343e-10 1.861578e-07 1.596394e-06))
108           	((-1.041597e-03 6.958229e-05 -7.762345e-05) (6.220113e-03 -3.664453e-05 -2.648161e-05)) ((1.148996e-08 -2.342668e-06 -3.669944e-06) (-9.838769e-10 1.834978e-07 1.592250e-06))
109           	((-1.021138e-03 6.985106e-05 -7.842704e-05) (6.180399e-03 -3.621101e-05 -2.621916e-05)) ((1.143649e-08 -2.325441e-06 -3.635546e-06) (-1.034713e-09 1.808668e-07 1.588264e-06))
110           	((-1.000726e-03 7.005985e-05 -7.917859e-05) (6.141482e-03 -3.578492e-05 -2.596347e-05)) ((1.137803e-08 -2.308749e-06 -3.602155e-06) (-1.082956e-09 1.782647e-07 1.584437e-06))
111           	((-9.807180e-04 7.025835e-05 -7.988494e-05) (6.103340e-03 -3.536565e-05 -2.571473e-05)) ((1.132269e-08 -2.292206e-06 -3.569162e-06) (-1.128619e-09 1.756949e-07 1.580764e-06))
112           	((-9.610664e-04 7.044189e-05 -8.054633e-05) (6.065964e-03 -3.495308e-05 -2.547226e-05)) ((1.126928e-08 -2.275841e-06 -3.536613e-06) (-1.172102e-09 1.731541e-07 1.577236e-06))
113           	((-9.419717e-04 7.063504e-05 -8.116905e-05) (6.029348e-03 -3.454705e-05 -2.523568e-05)) ((1.122129e-08 -2.259542e-06 -3.504211e-06) (-1.213717e-09 1.706440e-07 1.573844e-06))
114           	((-9.229808e-04 7.078874e-05 -8.174897e-05) (5.993472e-03 -3.414735e-05 -2.500429e-05)) ((1.117041e-08 -2.243666e-06 -3.472596e-06) (-1.253669e-09 1.681637e-07 1.570584e-06))
115           	((-9.038300e-04 7.087628e-05 -8.228756e-05) (5.958289e-03 -3.375307e-05 -2.477829e-05)) ((1.111192e-08 -2.228426e-06 -3.442167e-06) (-1.291781e-09 1.657226e-07 1.567462e-06))
116           	((-8.852195e-04 7.098073e-05 -8.280148e-05) (5.923783e-03 -3.336412e-05 -2.455796e-05)) ((1.105744e-08 -2.213407e-06 -3.411962e-06) (-1.327988e-09 1.633289e-07 1.564480e-06))
117           	((-8.667620e-04 7.106193e-05 -8.328851e-05) (5.889953e-03 -3.298094e-05 -2.434230e-05)) ((1.100200e-08 -2.198832e-06 -3.382509e-06) (-1.362579e-09 1.609735e-07 1.561630e-06))
118           	((-8.484839e-04 7.112490e-05 -8.375253e-05) (5.856772e-03 -3.260327e-05 -2.413175e-05)) ((1.094654e-08 -2.184685e-06 -3.353765e-06) (-1.395404e-09 1.586599e-07 1.558915e-06))
119           	((-8.304171e-04 7.117391e-05 -8.419683e-05) (5.824222e-03 -3.223099e-05 -2.392645e-05)) ((1.089194e-08 -2.170942e-06 -3.325667e-06) (-1.426396e-09 1.563885e-07 1.556333e-06))
120           	((-8.125872e-04 7.121126e-05 -8.462405e-05) (5.792290e-03 -3.186396e-05 -2.372640e-05)) ((1.083903e-08 -2.157574e-06 -3.298147e-06) (-1.455509e-09 1.541596e-07 1.553878e-06))
121           	((-7.950072e-04 7.123713e-05 -8.503581e-05) (5.760962e-03 -3.150198e-05 -2.353155e-05)) ((1.078839e-08 -2.144556e-06 -3.271136e-06) (-1.482740e-09 1.519737e-07 1.551547e-06))
122           	((-7.776740e-04 7.124966e-05 -8.543281e-05) (5.730224e-03 -3.114479e-05 -2.334177e-05)) ((1.074050e-08 -2.131863e-06 -3.244582e-06) (-1.508163e-09 1.498326e-07 1.549334e-06))
123           	((-7.605865e-04 7.124425e-05 -8.581405e-05) (5.700064e-03 -3.079210e-05 -2.315689e-05)) ((1.069562e-08 -2.119482e-06 -3.218443e-06) (-1.531855e-09 1.477380e-07 1.547234e-06))
124           	((-7.437475e-04 7.122044e-05 -8.617902e-05) (5.670467e-03 -3.044361e-05 -2.297674e-05)) ((1.065493e-08 -2.107359e-06 -3.192619e-06) (-1.553845e-09 1.456916e-07 1.545243e-06))
125           	((-7.271108e-04 7.117073e-05 -8.652411e-05) (5.641421e-03 -3.009912e-05 -2.280118e-05)) ((1.061627e-08 -2.095533e-06 -3.167237e-06) (-1.574139e-09 1.436944e-07 1.543356e-06))
126           	((-7.107060e-04 7.110080e-05 -8.684906e-05) (5.612911e-03 -2.975843e-05 -2.263015e-05)) ((1.058164e-08 -2.083909e-06 -3.142128e-06) (-1.592742e-09 1.417457e-07 1.541573e-06))
127           	((-6.945168e-04 7.100993e-05 -8.715231e-05) (5.584925e-03 -2.942147e-05 -2.246363e-05)) ((1.055063e-08 -2.072465e-06 -3.117308e-06) (-1.609670e-09 1.398435e-07 1.539889e-06))
128           	((-6.783475e-04 7.088349e-05 -8.743048e-05) (5.557442e-03 -2.908789e-05 -2.230163e-05)) ((1.052479e-08 -2.061149e-06 -3.092841e-06) (-1.624930e-09 1.379844e-07 1.538303e-06))
129           	((-6.624762e-04 7.074164e-05 -8.768759e-05) (5.530450e-03 -2.875750e-05 -2.214448e-05)) ((1.050028e-08 -2.050033e-06 -3.068700e-06) (-1.638481e-09 1.361690e-07 1.536815e-06))
130           	((-6.468920e-04 7.058767e-05 -8.792383e-05) (5.503948e-03 -2.843037e-05 -2.199178e-05)) ((1.047748e-08 -2.039093e-06 -3.044902e-06) (-1.650368e-09 1.343914e-07 1.535421e-06))
131           	((-6.315650e-04 7.042623e-05 -8.813980e-05) (5.477930e-03 -2.810646e-05 -2.184336e-05)) ((1.045699e-08 -2.028293e-06 -3.021454e-06) (-1.660679e-09 1.326490e-07 1.534120e-06))
132           	((-6.164573e-04 7.025903e-05 -8.833608e-05) (5.452384e-03 -2.778569e-05 -2.169907e-05)) ((1.043964e-08 -2.017603e-06 -2.998362e-06) (-1.669528e-09 1.309407e-07 1.532909e-06))
133           	((-6.015389e-04 7.008543e-05 -8.851353e-05) (5.427298e-03 -2.746789e-05 -2.155878e-05)) ((1.042611e-08 -2.006999e-06 -2.975633e-06) (-1.677027e-09 1.292651e-07 1.531786e-06))
134           	((-5.867896e-04 6.990324e-05 -8.867289e-05) (5.402658e-03 -2.715284e-05 -2.142240e-05)) ((1.041703e-08 -1.996479e-06 -2.953263e-06) (-1.683276e-09 1.276210e-07 1.530752e-06))
135           	((-5.722005e-04 6.970979e-05 -8.881500e-05) (5.378452e-03 -2.684034e-05 -2.128985e-05)) ((1.041264e-08 -1.986054e-06 -2.931241e-06) (-1.688343e-09 1.260067e-07 1.529806e-06))
136           	((-5.577727e-04 6.950241e-05 -8.894097e-05) (5.354669e-03 -2.653019e-05 -2.116107e-05)) ((1.041288e-08 -1.975743e-06 -2.909542e-06) (-1.692265e-09 1.244208e-07 1.528947e-06))
137           	((-5.435095e-04 6.927867e-05 -8.905216e-05) (5.331300e-03 -2.622223e-05 -2.103600e-05)) ((1.041757e-08 -1.965566e-06 -2.888149e-06) (-1.695063e-09 1.228624e-07 1.528174e-06))
138           	((-5.294872e-04 6.904575e-05 -8.915120e-05) (5.308337e-03 -2.591640e-05 -2.091457e-05)) ((1.042645e-08 -1.955532e-06 -2.866977e-06) (-1.696782e-09 1.213309e-07 1.527485e-06))
139           	((-5.156103e-04 6.878674e-05 -8.923932e-05) (5.285773e-03 -2.561258e-05 -2.079670e-05)) ((1.044007e-08 -1.945671e-06 -2.846087e-06) (-1.697460e-09 1.198273e-07 1.526878e-06))
140           	((-5.018863e-04 6.850181e-05 -8.931936e-05) (5.263598e-03 -2.531048e-05 -2.068239e-05)) ((1.045828e-08 -1.935983e-06 -2.825459e-06) (-1.697027e-09 1.183528e-07 1.526352e-06))
141           	((-4.883260e-04 6.819321e-05 -8.939389e-05) (5.241804e-03 -2.500991e-05 -2.057154e-05)) ((1.048082e-08 -1.926462e-06 -2.805076e-06) (-1.695478e-09 1.169087e-07 1.525907e-06))
142           	((-4.749380e-04 6.786363e-05 -8.946506e-05) (5.220383e-03 -2.471079e-05 -2.046410e-05)) ((1.050719e-08 -1.917098e-06 -2.784926e-06) (-1.692824e-09 1.154969e-07 1.525540e-06))
143           	((-4.617260e-04 6.751554e-05 -8.953431e-05) (5.199328e-03 -2.441302e-05 -2.036010e-05)) ((1.053667e-08 -1.907880e-06 -2.765013e-06) (-1.689045e-09 1.141195e-07 1.525250e-06))
144           	((-4.486898e-04 6.715135e-05 -8.960269e-05) (5.178632e-03 -2.411658e-05 -2.025962e-05)) ((1.056866e-08 -1.898791e-06 -2.745351e-06) (-1.684103e-09 1.127787e-07 1.525035e-06))
145           	((-4.358251e-04 6.677286e-05 -8.967074e-05) (5.158288e-03 -2.382142e-05 -2.016283e-05)) ((1.060266e-08 -1.889811e-06 -2.725961e-06) (-1.677954e-09 1.114758e-07 1.524892e-06))
146           	((-4.231341e-04 6.638227e-05 -8.973852e-05) (5.138289e-03 -2.352755e-05 -2.006988e-05)) ((1.063805e-08 -1.880923e-06 -2.706859e-06) (-1.670565e-09 1.102118e-07 1.524821e-06))
147           	((-4.105969e-04 6.597981e-05 -8.980573e-05) (5.118628e-03 -2.323492e-05 -1.998096e-05)) ((1.067455e-08 -1.872104e-06 -2.688080e-06) (-1.661906e-09 1.089867e-07 1.524820e-06))
148           	((-3.982087e-04 6.556624e-05 -8.987190e-05) (5.099297e-03 -2.294348e-05 -1.989620e-05)) ((1.071181e-08 -1.863334e-06 -2.669642e-06) (-1.651959e-09 1.078002e-07 1.524889e-06))
149           	((-3.859673e-04 6.514200e-05 -8.993642e-05) (5.080289e-03 -2.265318e-05 -1.981568e-05)) ((1.074958e-08 -1.854597e-06 -2.651556e-06) (-1.640720e-09 1.066513e-07 1.525025e-06))
150           	((-3.738723e-04 6.470721e-05 -8.999853e-05) (5.061597e-03 -2.236398e-05 -1.973942e-05)) ((1.078771e-08 -1.845877e-06 -2.633826e-06) (-1.628216e-09 1.055385e-07 1.525228e-06))
151           	((-3.619236e-04 6.426136e-05 -9.005723e-05) (5.043215e-03 -2.207581e-05 -1.966734e-05)) ((1.082631e-08 -1.837162e-06 -2.616453e-06) (-1.614489e-09 1.044604e-07 1.525497e-06))
152           	((-3.501213e-04 6.380350e-05 -9.011162e-05) (5.025137e-03 -2.178860e-05 -1.959928e-05)) ((1.086588e-08 -1.828446e-06 -2.599430e-06) (-1.599564e-09 1.034155e-07 1.525830e-06))
153           	((-3.384645e-04 6.333227e-05 -9.016106e-05) (5.007356e-03 -2.150226e-05 -1.953507e-05)) ((1.090714e-08 -1.819726e-06 -2.582746e-06) (-1.583456e-09 1.024028e-07 1.526226e-06))
154           	((-3.269512e-04 6.284614e-05 -9.020523e-05) (4.989867e-03 -2.121671e-05 -1.947450e-05)) ((1.095103e-08 -1.811005e-06 -2.566390e-06) (-1.566175e-09 1.014218e-07 1.526683e-06))
155           	((-3.155789e-04 6.234349e-05 -9.024440e-05) (4.972665e-03 -2.093186e-05 -1.941739e-05)) ((1.099861e-08 -1.802290e-06 -2.550350e-06) (-1.547725e-09 1.004725e-07 1.527200e-06))
156           	((-3.043450e-04 6.182287e-05 -9.027945e-05) (4.955743e-03 -2.064761e-05 -1.936355e-05)) ((1.105079e-08 -1.793589e-06 -2.534614e-06) (-1.528107e-09 9.955563e-08 1.527777e-06))