# y+ ()       
# Time        	patch         	min           	max           	average       
0             	wall_b	1.343047e-01	1.723652e-01	1.705682e-01
0             	defaultFaces	1.270631e-01	1.797892e-01	1.702055e-01
100           	wall_b	2.335727e-03	4.046705e-01	5.834985e-02
100           	defaultFaces	2.383235e-03	3.367364e-01	5.734664e-02
200           	wall_b	9.671623e-04	1.630894e-01	2.885354e-02
200           	defaultFaces	9.770876e-04	1.637618e-01	2.862809e-02
300           	wall_b	5.613045e-04	1.109963e-01	2.088925e-02
300           	defaultFaces	5.780477e-04	1.393981e-01	2.087247e-02
400           	wall_b	3.275112e-04	9.304811e-02	1.763536e-02
400           	defaultFaces	3.421442e-04	1.435292e-01	1.776836e-02
500           	wall_b	2.093913e-04	8.540484e-02	1.602236e-02
500           	defaultFaces	2.175449e-04	1.419219e-01	1.615415e-02
600           	wall_b	1.398275e-04	8.363882e-02	1.514201e-02
600           	defaultFaces	1.419548e-04	1.346939e-01	1.520389e-02
700           	wall_b	1.084569e-04	8.564702e-02	1.465511e-02
700           	defaultFaces	1.117352e-04	1.280305e-01	1.470255e-02
800           	wall_b	9.035875e-05	8.901948e-02	1.439964e-02
800           	defaultFaces	9.395901e-05	1.308520e-01	1.452298e-02
900           	wall_b	8.687529e-05	8.622588e-02	1.430209e-02
900           	defaultFaces	9.166599e-05	1.413972e-01	1.454872e-02
1000          	wall_b	8.033641e-05	7.607425e-02	1.429187e-02
1000          	defaultFaces	8.360452e-05	1.481328e-01	1.461765e-02
1100          	wall_b	7.756838e-05	7.607387e-02	1.433541e-02
1100          	defaultFaces	7.895662e-05	1.526423e-01	1.467521e-02
1200          	wall_b	7.861483e-05	7.607407e-02	1.437775e-02
1200          	defaultFaces	8.217948e-05	1.582231e-01	1.471512e-02
1300          	wall_b	7.973082e-05	7.607388e-02	1.439728e-02
1300          	defaultFaces	8.261881e-05	1.656620e-01	1.479097e-02
1400          	wall_b	7.400869e-05	7.607434e-02	1.437340e-02
1400          	defaultFaces	7.830179e-05	1.789450e-01	1.476795e-02
1500          	wall_b	6.515911e-05	7.728097e-02	1.431348e-02
1500          	defaultFaces	6.891355e-05	1.949737e-01	1.465007e-02
1600          	wall_b	5.888343e-05	8.077932e-02	1.426505e-02
1600          	defaultFaces	6.228175e-05	2.072226e-01	1.460706e-02
1700          	wall_b	5.497441e-05	8.384141e-02	1.423515e-02
1700          	defaultFaces	5.817333e-05	2.142302e-01	1.465370e-02
1800          	wall_b	5.267008e-05	8.627835e-02	1.420832e-02
1800          	defaultFaces	5.531282e-05	2.145694e-01	1.471303e-02
1900          	wall_b	4.967210e-05	8.757764e-02	1.418020e-02
1900          	defaultFaces	5.107033e-05	2.170423e-01	1.475728e-02
2000          	wall_b	4.611048e-05	8.778540e-02	1.416409e-02
2000          	defaultFaces	4.756523e-05	2.221710e-01	1.477347e-02
2100          	wall_b	4.192442e-05	8.751664e-02	1.415092e-02
2100          	defaultFaces	4.430969e-05	2.239641e-01	1.473035e-02
2200          	wall_b	3.791186e-05	8.718873e-02	1.413747e-02
2200          	defaultFaces	4.010912e-05	2.229080e-01	1.463435e-02
2300          	wall_b	3.441244e-05	8.706733e-02	1.412040e-02
2300          	defaultFaces	3.523548e-05	2.181848e-01	1.448138e-02
2400          	wall_b	3.163753e-05	8.638202e-02	1.411089e-02
2400          	defaultFaces	3.213859e-05	2.108635e-01	1.432653e-02
2500          	wall_b	3.179921e-05	8.580295e-02	1.411265e-02
2500          	defaultFaces	3.231183e-05	2.033419e-01	1.418085e-02
2600          	wall_b	3.087548e-05	8.573343e-02	1.412876e-02
2600          	defaultFaces	3.175470e-05	1.987856e-01	1.406845e-02
2700          	wall_b	2.810994e-05	8.604579e-02	1.415588e-02
2700          	defaultFaces	2.831735e-05	1.974002e-01	1.403930e-02
2800          	wall_b	2.453654e-05	8.642423e-02	1.418496e-02
2800          	defaultFaces	2.471880e-05	1.976248e-01	1.407182e-02
2900          	wall_b	2.185550e-05	8.662883e-02	1.421133e-02
2900          	defaultFaces	2.201806e-05	1.981712e-01	1.413060e-02
3000          	wall_b	1.996463e-05	8.662220e-02	1.422965e-02
3000          	defaultFaces	2.011322e-05	1.985145e-01	1.418809e-02
3100          	wall_b	1.842936e-05	8.649918e-02	1.423715e-02
3100          	defaultFaces	1.856684e-05	1.986271e-01	1.422790e-02
3200          	wall_b	1.703371e-05	8.631784e-02	1.423311e-02
3200          	defaultFaces	1.716107e-05	1.986603e-01	1.424190e-02
3300          	wall_b	1.575323e-05	8.603987e-02	1.422138e-02
3300          	defaultFaces	1.587120e-05	1.986459e-01	1.423154e-02
3400          	wall_b	1.459307e-05	8.558632e-02	1.420930e-02
3400          	defaultFaces	1.470245e-05	1.982945e-01	1.421000e-02
3500          	wall_b	1.354195e-05	8.514279e-02	1.420295e-02
3500          	defaultFaces	1.364354e-05	1.975244e-01	1.419159e-02
3600          	wall_b	1.258661e-05	8.496647e-02	1.420148e-02
3600          	defaultFaces	1.268110e-05	1.970154e-01	1.418189e-02
3700          	wall_b	1.172820e-05	8.501959e-02	1.419926e-02
3700          	defaultFaces	1.181628e-05	1.972134e-01	1.417623e-02
3800          	wall_b	1.097993e-05	8.514878e-02	1.419164e-02
3800          	defaultFaces	1.106236e-05	1.978506e-01	1.416764e-02
3900          	wall_b	1.035446e-05	8.520392e-02	1.417814e-02
3900          	defaultFaces	1.043212e-05	1.985431e-01	1.415316e-02
4000          	wall_b	9.855029e-06	8.510891e-02	1.416129e-02
4000          	defaultFaces	9.928831e-06	1.990402e-01	1.413422e-02
4100          	wall_b	9.474128e-06	8.490262e-02	1.414322e-02
4100          	defaultFaces	9.544952e-06	1.992983e-01	1.411419e-02
4200          	wall_b	9.196775e-06	8.466824e-02	1.412370e-02
4200          	defaultFaces	9.265396e-06	1.994256e-01	1.409525e-02
4300          	wall_b	8.858473e-06	8.444415e-02	1.410464e-02
4300          	defaultFaces	8.999277e-06	1.995075e-01	1.407435e-02
4400          	wall_b	8.518528e-06	8.421314e-02	1.408730e-02
4400          	defaultFaces	8.653378e-06	1.995167e-01	1.404867e-02
4500          	wall_b	8.286098e-06	8.394819e-02	1.407430e-02
4500          	defaultFaces	8.416630e-06	1.993777e-01	1.402114e-02
4600          	wall_b	8.140497e-06	8.365136e-02	1.406330e-02
4600          	defaultFaces	8.268083e-06	1.990712e-01	1.399892e-02
4700          	wall_b	8.059090e-06	8.335387e-02	1.405699e-02
4700          	defaultFaces	8.184821e-06	1.986608e-01	1.398640e-02
4800          	wall_b	8.021954e-06	8.308871e-02	1.405295e-02
4800          	defaultFaces	8.146655e-06	1.982372e-01	1.398318e-02
4900          	wall_b	8.014090e-06	8.287205e-02	1.404899e-02
4900          	defaultFaces	8.138363e-06	1.978566e-01	1.398569e-02
5000          	wall_b	8.025121e-06	8.270065e-02	1.404260e-02
5000          	defaultFaces	8.149383e-06	1.975433e-01	1.398865e-02
5100          	wall_b	8.048359e-06	8.253637e-02	1.403212e-02
5100          	defaultFaces	8.172901e-06	1.973092e-01	1.398599e-02
5200          	wall_b	8.078992e-06	8.229695e-02	1.401806e-02
5200          	defaultFaces	8.204008e-06	1.971117e-01	1.397555e-02
5203          	wall_b	8.080000e-06	8.228762e-02	1.401761e-02
5203          	defaultFaces	8.205032e-06	1.971050e-01	1.397511e-02
