# Forces      
# CofR        : (0.000000e+00 0.000000e+00 0.000000e+00)
# Time        forces(pressure viscous)	moments(pressure viscous)
0             	((0.000000e+00 0.000000e+00 0.000000e+00) (0.000000e+00 0.000000e+00 0.000000e+00)) ((0.000000e+00 0.000000e+00 0.000000e+00) (0.000000e+00 0.000000e+00 0.000000e+00))
1             	((-3.289589e+00 1.184301e-01 1.094272e-02) (7.681484e-03 -8.076359e-05 -2.708801e-05)) ((-1.876163e-05 -4.592008e-04 -2.335135e-03) (-1.300335e-08 -1.668413e-06 2.108463e-06))
2             	((-2.777810e+00 9.900101e-02 2.973540e-03) (1.498396e-01 -1.616321e-03 4.819102e-04)) ((-1.389190e-05 -2.452083e-04 -2.043210e-03) (5.572807e-08 6.184882e-06 3.899101e-05))
3             	((-1.460581e+00 5.181576e-02 -6.187835e-03) (1.759974e-01 -1.823988e-03 8.847280e-04)) ((-4.896605e-06 7.456988e-05 -1.031208e-03) (-5.788294e-10 3.352778e-06 4.586280e-05))
4             	((-1.511585e-01 2.525703e-03 -9.619918e-03) (1.381685e-01 -1.256777e-03 8.095229e-04)) ((2.583812e-06 2.685800e-04 -1.132737e-04) (-5.286709e-08 3.972071e-07 3.680859e-05))
5             	((7.601838e-01 -2.878346e-02 -6.480898e-03) (7.454239e-02 -5.761875e-04 3.035970e-04)) ((5.613995e-06 3.075911e-04 5.195389e-04) (-5.796385e-09 -1.855283e-07 2.109873e-05))
6             	((1.150676e+00 -4.302401e-02 -3.156021e-03) (1.942980e-02 2.395917e-05 -1.560551e-04)) ((6.414433e-06 2.547246e-04 7.423266e-04) (5.349175e-08 -6.810615e-07 7.990583e-06))
7             	((1.105465e+00 -4.084916e-02 1.354153e-04) (-1.160686e-02 2.828970e-04 -2.609654e-04)) ((5.255204e-06 1.534843e-04 6.963173e-04) (4.809634e-08 -1.881102e-06 1.834799e-07))
8             	((7.841084e-01 -2.885718e-02 2.475315e-03) (-1.673373e-02 2.578632e-04 -9.316785e-05)) ((3.123417e-06 4.721709e-05 4.847966e-04) (1.415773e-10 -3.413286e-06 -1.962996e-06))
9             	((3.559835e-01 -1.297950e-02 3.485749e-03) (-3.070923e-03 3.668358e-05 9.160367e-05)) ((8.631016e-07 -3.637509e-05 2.178755e-04) (-3.022197e-08 -3.944882e-06 1.149942e-07))
10            	((-2.320854e-02 7.807606e-04 3.391296e-03) (1.713847e-02 -2.086395e-04 1.665056e-04)) ((-8.637152e-07 -8.299354e-05 -1.536081e-05) (-2.577747e-08 -3.143863e-06 4.252582e-06))
11            	((-2.693975e-01 9.544450e-03 2.571191e-03) (3.684589e-02 -4.175027e-04 1.480996e-04)) ((-1.810595e-06 -9.263110e-05 -1.670656e-04) (1.610526e-09 -1.647832e-06 8.656155e-06))
12            	((-3.607698e-01 1.276717e-02 1.602354e-03) (5.180006e-02 -5.553903e-04 9.293249e-05)) ((-2.028593e-06 -7.721181e-05 -2.251215e-04) (3.250277e-08 -1.818391e-07 1.216278e-05))
13            	((-3.252889e-01 1.165479e-02 6.910745e-04) (6.006281e-02 -6.171347e-04 3.851807e-05)) ((-1.726755e-06 -4.796672e-05 -2.069278e-04) (5.547471e-08 8.540823e-07 1.417657e-05))
14            	((-2.153456e-01 8.091566e-03 2.593357e-05) (6.165767e-02 -6.144203e-04 -3.290793e-06)) ((-1.144996e-06 -1.749566e-05 -1.434406e-04) (6.815163e-08 1.353246e-06 1.460835e-05))
15            	((-8.622045e-02 3.896081e-03 -3.334716e-04) (5.812683e-02 -5.683811e-04 -3.264107e-05)) ((-5.362118e-07 5.396422e-06 -6.701707e-05) (7.250266e-08 1.431536e-06 1.376997e-05))
16            	((2.015417e-02 4.036260e-04 -4.711657e-04) (5.181744e-02 -5.028052e-04 -5.140473e-05)) ((-4.916788e-08 1.755777e-05 -1.965804e-06) (7.149446e-08 1.263529e-06 1.220097e-05))
17            	((8.187903e-02 -1.681543e-03 -5.072573e-04) (4.508026e-02 -4.381761e-04 -6.064294e-05)) ((2.490710e-07 1.998437e-05 3.801456e-05) (6.742517e-08 9.989811e-07 1.047089e-05))
18            	((9.660744e-02 -2.367102e-03 -4.758151e-04) (3.963197e-02 -3.871955e-04 -6.126102e-05)) ((3.568445e-07 1.501638e-05 5.028849e-05) (6.184807e-08 7.480918e-07 9.021474e-06))
19            	((7.569613e-02 -1.919862e-03 -3.619368e-04) (3.625863e-02 -3.543937e-04 -5.618150e-05)) ((2.991825e-07 5.641852e-06 4.170432e-05) (5.612403e-08 5.807528e-07 8.071607e-06))
20            	((3.650338e-02 -9.060117e-04 -2.539863e-04) (3.490701e-02 -3.373737e-04 -4.938092e-05)) ((1.551998e-07 -3.594609e-06 2.108623e-05) (5.127466e-08 5.223880e-07 7.636402e-06))
21            	((-4.023473e-03 2.307635e-04 -1.583557e-04) (3.498739e-02 -3.305126e-04 -4.352347e-05)) ((-1.279047e-08 -1.044933e-05 -1.406113e-06) (4.772592e-08 5.509323e-07 7.590712e-06))
22            	((-3.410109e-02 1.119383e-03 -8.628110e-05) (3.571374e-02 -3.277079e-04 -4.021259e-05)) ((-1.503125e-07 -1.387980e-05 -1.909860e-05) (4.535180e-08 6.270450e-07 7.746300e-06))
23            	((-4.861038e-02 1.592866e-03 -3.879173e-05) (3.638281e-02 -3.240301e-04 -3.980334e-05)) ((-2.304778e-07 -1.414826e-05 -2.881825e-05) (4.372040e-08 7.093846e-07 7.926927e-06))
24            	((-4.841492e-02 1.657591e-03 -3.323166e-05) (3.653514e-02 -3.166901e-04 -4.173428e-05)) ((-2.472952e-07 -1.195057e-05 -3.027831e-05) (4.235146e-08 7.666268e-07 8.007787e-06))
25            	((-3.819288e-02 1.417057e-03 -6.124338e-05) (3.600331e-02 -3.049682e-04 -4.490452e-05)) ((-2.119823e-07 -8.566413e-06 -2.581223e-05) (4.085893e-08 7.810774e-07 7.933614e-06))
26            	((-2.388453e-02 1.046134e-03 -9.201625e-05) (3.486673e-02 -2.898499e-04 -4.823362e-05)) ((-1.515785e-07 -5.483755e-06 -1.826779e-05) (3.902634e-08 7.527054e-07 7.709890e-06))
27            	((-1.069346e-02 6.783050e-04 -1.188634e-04) (3.335621e-02 -2.731741e-04 -5.087540e-05)) ((-8.834229e-08 -3.411239e-06 -1.063717e-05) (3.680372e-08 6.940420e-07 7.383212e-06))
28            	((-1.850335e-03 3.981641e-04 -1.405639e-04) (3.174617e-02 -2.567328e-04 -5.228371e-05)) ((-3.652197e-08 -2.462805e-06 -4.982801e-06) (3.429081e-08 6.200051e-07 7.017687e-06))
29            	((1.664747e-03 2.485669e-04 -1.443569e-04) (3.026424e-02 -2.419147e-04 -5.229751e-05)) ((-7.980465e-09 -2.633517e-06 -2.079243e-06) (3.165208e-08 5.448010e-07 6.670518e-06))
30            	((6.766790e-04 2.227254e-04 -1.336003e-04) (2.904210e-02 -2.294438e-04 -5.122910e-05)) ((-2.842853e-10 -3.471415e-06 -1.753804e-06) (2.908466e-08 4.802869e-07 6.378551e-06))
31            	((-3.032476e-03 2.804383e-04 -1.126211e-04) (2.810840e-02 -2.193747e-04 -4.961933e-05)) ((-9.048736e-09 -4.563647e-06 -3.161370e-06) (2.675136e-08 4.316211e-07 6.154194e-06))
32            	((-7.501008e-03 3.638250e-04 -9.129452e-05) (2.741387e-02 -2.111841e-04 -4.802161e-05)) ((-2.625050e-08 -5.401183e-06 -5.418317e-06) (2.476352e-08 3.987042e-07 5.991152e-06))
33            	((-1.116181e-02 4.368102e-04 -7.288244e-05) (2.686794e-02 -2.041579e-04 -4.672454e-05)) ((-4.349651e-08 -5.850513e-06 -7.587307e-06) (2.312930e-08 3.775557e-07 5.871082e-06))
34            	((-1.317029e-02 4.764834e-04 -5.971304e-05) (2.637578e-02 -1.976587e-04 -4.602759e-05)) ((-5.510330e-08 -5.905158e-06 -9.038689e-06) (2.183433e-08 3.624571e-07 5.771216e-06))
35            	((-1.343754e-02 4.808013e-04 -5.147145e-05) (2.586608e-02 -1.912744e-04 -4.587332e-05)) ((-5.978717e-08 -5.656585e-06 -9.601198e-06) (2.076851e-08 3.494074e-07 5.672612e-06))
36            	((-1.236872e-02 4.531975e-04 -5.029877e-05) (2.530311e-02 -1.848108e-04 -4.611300e-05)) ((-5.663256e-08 -5.215084e-06 -9.358266e-06) (1.983678e-08 3.345996e-07 5.563873e-06))
37            	((-1.062374e-02 4.089381e-04 -5.312137e-05) (2.468471e-02 -1.782756e-04 -4.649582e-05)) ((-4.803697e-08 -4.767183e-06 -8.584055e-06) (1.894940e-08 3.165038e-07 5.441458e-06))
38            	((-8.832447e-03 3.626300e-04 -5.697260e-05) (2.403209e-02 -1.718239e-04 -4.684723e-05)) ((-3.700377e-08 -4.418842e-06 -7.589729e-06) (1.805942e-08 2.952557e-07 5.308023e-06))
39            	((-7.446254e-03 3.250578e-04 -5.940725e-05) (2.337650e-02 -1.656519e-04 -4.702614e-05)) ((-2.624977e-08 -4.220792e-06 -6.665573e-06) (1.714995e-08 2.724581e-07 5.169821e-06))
40            	((-6.669269e-03 2.972311e-04 -6.209154e-05) (2.274759e-02 -1.598939e-04 -4.700340e-05)) ((-1.708756e-08 -4.128030e-06 -6.027948e-06) (1.623420e-08 2.494835e-07 5.034213e-06))
41            	((-6.466729e-03 2.798765e-04 -6.221923e-05) (2.216517e-02 -1.546033e-04 -4.678174e-05)) ((-1.084231e-08 -4.135396e-06 -5.718900e-06) (1.534127e-08 2.278096e-07 4.907143e-06))
42            	((-6.655922e-03 2.725112e-04 -5.972858e-05) (2.163603e-02 -1.497867e-04 -4.648346e-05)) ((-7.416439e-09 -4.198096e-06 -5.680979e-06) (1.451215e-08 2.085440e-07 4.791554e-06))
43            	((-7.017863e-03 2.691005e-04 -5.669168e-05) (2.115619e-02 -1.453896e-04 -4.619096e-05)) ((-5.994933e-09 -4.252927e-06 -5.818215e-06) (1.377162e-08 1.922455e-07 4.687649e-06))
44            	((-7.347225e-03 2.667454e-04 -5.376578e-05) (2.071508e-02 -1.413224e-04 -4.598637e-05)) ((-5.502774e-09 -4.267502e-06 -6.014324e-06) (1.313468e-08 1.784438e-07 4.593736e-06))
45            	((-7.516156e-03 2.618133e-04 -5.243885e-05) (2.029994e-02 -1.374972e-04 -4.588383e-05)) ((-4.670853e-09 -4.223510e-06 -6.177087e-06) (1.259475e-08 1.666244e-07 4.507076e-06))
46            	((-7.485972e-03 2.532973e-04 -5.229958e-05) (1.989988e-02 -1.338437e-04 -4.588869e-05)) ((-3.123006e-09 -4.138891e-06 -6.251256e-06) (1.213448e-08 1.559334e-07 4.424912e-06))
47            	((-7.280276e-03 2.428165e-04 -5.315376e-05) (1.950785e-02 -1.303285e-04 -4.595326e-05)) ((-5.145860e-10 -4.032358e-06 -6.220688e-06) (1.173116e-08 1.459857e-07 4.345122e-06))
48            	((-6.972233e-03 2.314854e-04 -5.421595e-05) (1.912127e-02 -1.269510e-04 -4.605391e-05)) ((2.812954e-09 -3.932961e-06 -6.102386e-06) (1.136071e-08 1.363867e-07 4.266494e-06))
49            	((-6.639452e-03 2.184579e-04 -5.526977e-05) (1.874118e-02 -1.237060e-04 -4.614269e-05)) ((6.670887e-09 -3.850592e-06 -5.934965e-06) (1.100706e-08 1.272170e-07 4.188781e-06))
50            	((-6.341677e-03 2.092999e-04 -5.612257e-05) (1.837048e-02 -1.206193e-04 -4.620729e-05)) ((1.020693e-08 -3.793952e-06 -5.741924e-06) (1.066178e-08 1.184065e-07 4.112285e-06))
51            	((-6.116563e-03 2.001498e-04 -5.671643e-05) (1.801255e-02 -1.177012e-04 -4.624915e-05)) ((1.343263e-08 -3.752549e-06 -5.583957e-06) (1.033325e-08 1.099681e-07 4.037772e-06))
52            	((-5.964802e-03 1.922040e-04 -5.717066e-05) (1.766984e-02 -1.149341e-04 -4.626054e-05)) ((1.608498e-08 -3.720410e-06 -5.463511e-06) (1.001490e-08 1.019364e-07 3.966041e-06))
53            	((-5.871269e-03 1.852510e-04 -5.688403e-05) (1.734321e-02 -1.123094e-04 -4.625020e-05)) ((1.809282e-08 -3.700975e-06 -5.383971e-06) (9.715941e-09 9.452220e-08 3.897487e-06))
54            	((-5.811176e-03 1.784170e-04 -5.670904e-05) (1.703219e-02 -1.098118e-04 -4.625054e-05)) ((1.963646e-08 -3.676798e-06 -5.342256e-06) (9.441635e-09 8.757212e-08 3.832260e-06))
55            	((-5.758009e-03 1.716365e-04 -5.650247e-05) (1.673531e-02 -1.074252e-04 -4.624902e-05)) ((2.083510e-08 -3.649150e-06 -5.319635e-06) (9.193180e-09 8.120293e-08 3.770236e-06))
56            	((-5.693132e-03 1.649749e-04 -5.640248e-05) (1.645060e-02 -1.051398e-04 -4.626358e-05)) ((2.184255e-08 -3.617284e-06 -5.301057e-06) (8.970264e-09 7.523048e-08 3.711040e-06))
57            	((-5.608458e-03 1.582121e-04 -5.646789e-05) (1.617616e-02 -1.029486e-04 -4.627354e-05)) ((2.278768e-08 -3.581322e-06 -5.276697e-06) (8.768112e-09 6.979506e-08 3.654253e-06))
58            	((-5.504795e-03 1.514746e-04 -5.663607e-05) (1.591059e-02 -1.008451e-04 -4.628759e-05)) ((2.375153e-08 -3.546935e-06 -5.240525e-06) (8.582054e-09 6.469094e-08 3.599497e-06))
59            	((-5.387772e-03 1.457657e-04 -5.705061e-05) (1.565296e-02 -9.883138e-05 -4.628420e-05)) ((2.463085e-08 -3.512009e-06 -5.186445e-06) (8.406788e-09 6.002358e-08 3.546433e-06))
60            	((-5.267760e-03 1.403474e-04 -5.756422e-05) (1.540290e-02 -9.690635e-05 -4.627468e-05)) ((2.545864e-08 -3.479523e-06 -5.124076e-06) (8.239350e-09 5.557988e-08 3.494862e-06))
61            	((-5.152473e-03 1.350446e-04 -5.801398e-05) (1.516044e-02 -9.506081e-05 -4.624305e-05)) ((2.619994e-08 -3.449595e-06 -5.059890e-06) (8.076863e-09 5.144097e-08 3.444752e-06))
62            	((-5.048409e-03 1.293537e-04 -5.836875e-05) (1.492576e-02 -9.328273e-05 -4.620685e-05)) ((2.685206e-08 -3.421519e-06 -5.005293e-06) (7.918089e-09 4.741652e-08 3.396183e-06))
63            	((-4.953838e-03 1.241405e-04 -5.874150e-05) (1.469892e-02 -9.156669e-05 -4.615003e-05)) ((2.740834e-08 -3.396430e-06 -4.950639e-06) (7.761722e-09 4.363836e-08 3.349174e-06))
64            	((-4.869157e-03 1.192200e-04 -5.895577e-05) (1.447974e-02 -8.991143e-05 -4.611723e-05)) ((2.776152e-08 -3.370630e-06 -4.902127e-06) (7.619031e-09 3.972640e-08 3.303674e-06))
65            	((-4.790541e-03 1.150605e-04 -5.911368e-05) (1.426795e-02 -8.831720e-05 -4.605219e-05)) ((2.792281e-08 -3.344729e-06 -4.855302e-06) (7.471354e-09 3.627842e-08 3.259657e-06))
66            	((-4.716210e-03 1.110564e-04 -5.930774e-05) (1.406318e-02 -8.678179e-05 -4.599075e-05)) ((2.800164e-08 -3.318124e-06 -4.815929e-06) (7.327687e-09 3.294484e-08 3.217096e-06))
67            	((-4.643523e-03 1.071465e-04 -5.954482e-05) (1.386504e-02 -8.530215e-05 -4.591350e-05)) ((2.802758e-08 -3.290716e-06 -4.781266e-06) (7.186416e-09 2.990315e-08 3.176005e-06))
68            	((-4.570820e-03 1.032009e-04 -5.983527e-05) (1.367310e-02 -8.387352e-05 -4.583371e-05)) ((2.804544e-08 -3.262948e-06 -4.748718e-06) (7.046521e-09 2.701077e-08 3.136310e-06))
69            	((-4.497622e-03 9.925588e-05 -6.014393e-05) (1.348698e-02 -8.249206e-05 -4.573427e-05)) ((2.806334e-08 -3.235362e-06 -4.715564e-06) (6.905704e-09 2.444563e-08 3.097912e-06))
70            	((-4.425023e-03 9.536458e-05 -6.055430e-05) (1.330636e-02 -8.115486e-05 -4.563783e-05)) ((2.808851e-08 -3.206778e-06 -4.683151e-06) (6.766925e-09 2.196173e-08 3.060728e-06))
71            	((-4.352697e-03 9.187636e-05 -6.095491e-05) (1.313098e-02 -7.986017e-05 -4.552680e-05)) ((2.807444e-08 -3.177972e-06 -4.646955e-06) (6.627874e-09 1.971630e-08 3.024654e-06))
72            	((-4.281841e-03 8.860610e-05 -6.131390e-05) (1.296059e-02 -7.860641e-05 -4.542215e-05)) ((2.803864e-08 -3.149760e-06 -4.609291e-06) (6.490258e-09 1.750479e-08 2.989590e-06))
73            	((-4.212967e-03 8.569448e-05 -6.152986e-05) (1.279504e-02 -7.739218e-05 -4.530715e-05)) ((2.796858e-08 -3.124047e-06 -4.569693e-06) (6.352022e-09 1.551222e-08 2.955478e-06))
74            	((-4.147121e-03 8.266767e-05 -6.186148e-05) (1.263418e-02 -7.621391e-05 -4.520003e-05)) ((2.789878e-08 -3.095615e-06 -4.533551e-06) (6.214066e-09 1.355470e-08 2.922303e-06))
75            	((-4.083864e-03 7.976391e-05 -6.216237e-05) (1.247790e-02 -7.506830e-05 -4.507978e-05)) ((2.781441e-08 -3.067717e-06 -4.498909e-06) (6.074574e-09 1.179923e-08 2.890081e-06))
76            	((-4.022883e-03 7.701891e-05 -6.244156e-05) (1.232603e-02 -7.395545e-05 -4.496279e-05)) ((2.771494e-08 -3.040129e-06 -4.466574e-06) (5.934584e-09 1.009903e-08 2.858790e-06))
77            	((-3.963776e-03 7.440791e-05 -6.273218e-05) (1.217841e-02 -7.287526e-05 -4.483113e-05)) ((2.760952e-08 -3.012763e-06 -4.436030e-06) (5.792658e-09 8.642433e-09 2.828412e-06))
78            	((-3.906172e-03 7.193257e-05 -6.306358e-05) (1.203484e-02 -7.182680e-05 -4.470068e-05)) ((2.750887e-08 -2.985611e-06 -4.406811e-06) (5.649821e-09 7.256488e-09 2.798915e-06))
79            	((-3.849765e-03 6.955368e-05 -6.341262e-05) (1.189517e-02 -7.080880e-05 -4.455544e-05)) ((2.741728e-08 -2.958773e-06 -4.378237e-06) (5.505079e-09 6.103210e-09 2.770261e-06))
80            	((-3.794490e-03 6.730207e-05 -6.382900e-05) (1.175922e-02 -6.981933e-05 -4.441188e-05)) ((2.733703e-08 -2.931942e-06 -4.350157e-06) (5.359587e-09 5.002313e-09 2.742403e-06))
81            	((-3.740298e-03 6.515046e-05 -6.424985e-05) (1.162684e-02 -6.885667e-05 -4.425466e-05)) ((2.725768e-08 -2.905004e-06 -4.322840e-06) (5.212598e-09 4.102661e-09 2.715302e-06))
82            	((-3.686835e-03 6.323385e-05 -6.456268e-05) (1.149787e-02 -6.791999e-05 -4.410162e-05)) ((2.717279e-08 -2.880638e-06 -4.294284e-06) (5.065438e-09 3.223638e-09 2.688906e-06))
83            	((-3.635096e-03 6.120009e-05 -6.503652e-05) (1.137221e-02 -6.700718e-05 -4.393797e-05)) ((2.710884e-08 -2.853559e-06 -4.268869e-06) (4.917173e-09 2.527656e-09 2.663193e-06))
84            	((-3.584517e-03 5.929854e-05 -6.550888e-05) (1.124976e-02 -6.611578e-05 -4.377813e-05)) ((2.705519e-08 -2.827447e-06 -4.243681e-06) (4.768778e-09 1.807240e-09 2.638164e-06))
85            	((-3.535104e-03 5.746842e-05 -6.597153e-05) (1.113038e-02 -6.524632e-05 -4.360664e-05)) ((2.700966e-08 -2.802396e-06 -4.218608e-06) (4.619446e-09 1.251679e-09 2.613780e-06))
86            	((-3.486829e-03 5.572402e-05 -6.646738e-05) (1.101397e-02 -6.439858e-05 -4.343434e-05)) ((2.699122e-08 -2.778909e-06 -4.193864e-06) (4.468019e-09 7.531697e-10 2.590020e-06))
87            	((-3.439651e-03 5.413714e-05 -6.691629e-05) (1.090043e-02 -6.357301e-05 -4.325898e-05)) ((2.694886e-08 -2.756011e-06 -4.170344e-06) (4.319812e-09 3.359978e-10 2.566870e-06))
88            	((-3.393525e-03 5.263858e-05 -6.732877e-05) (1.078966e-02 -6.276915e-05 -4.308735e-05)) ((2.689503e-08 -2.733575e-06 -4.147490e-06) (4.171656e-09 -7.278554e-11 2.544314e-06))
89            	((-3.348401e-03 5.120893e-05 -6.774316e-05) (1.068156e-02 -6.198551e-05 -4.290053e-05)) ((2.684431e-08 -2.711773e-06 -4.125297e-06) (4.020906e-09 -2.770545e-10 2.522326e-06))
90            	((-3.304223e-03 4.980812e-05 -6.816001e-05) (1.057603e-02 -6.122126e-05 -4.271859e-05)) ((2.679991e-08 -2.690563e-06 -4.103455e-06) (3.870811e-09 -4.914318e-10 2.500889e-06))
91            	((-3.260990e-03 4.847339e-05 -6.859022e-05) (1.047301e-02 -6.047531e-05 -4.252545e-05)) ((2.676337e-08 -2.669763e-06 -4.082404e-06) (3.720158e-09 -5.522405e-10 2.479985e-06))
92            	((-3.218657e-03 4.717240e-05 -6.904207e-05) (1.037239e-02 -5.974673e-05 -4.233545e-05)) ((2.673926e-08 -2.649652e-06 -4.061774e-06) (3.569234e-09 -6.158178e-10 2.459594e-06))
93            	((-3.177215e-03 4.589607e-05 -6.952486e-05) (1.027410e-02 -5.903507e-05 -4.213793e-05)) ((2.673347e-08 -2.630442e-06 -4.041521e-06) (3.419333e-09 -5.723307e-10 2.439704e-06))
94            	((-3.136629e-03 4.464687e-05 -7.003047e-05) (1.017806e-02 -5.833939e-05 -4.194629e-05)) ((2.674334e-08 -2.612090e-06 -4.021492e-06) (3.270198e-09 -5.642124e-10 2.420294e-06))
95            	((-3.096976e-03 4.345316e-05 -7.056032e-05) (1.008420e-02 -5.765941e-05 -4.174621e-05)) ((2.676859e-08 -2.594952e-06 -4.002027e-06) (3.121655e-09 -4.403747e-10 2.401352e-06))
96            	((-3.057976e-03 4.233373e-05 -7.107954e-05) (9.992453e-03 -5.699508e-05 -4.155065e-05)) ((2.679174e-08 -2.578358e-06 -3.982145e-06) (2.973554e-09 -3.379316e-10 2.382858e-06))
97            	((-3.019698e-03 4.125548e-05 -7.159299e-05) (9.902737e-03 -5.634627e-05 -4.134577e-05)) ((2.681840e-08 -2.562755e-06 -3.962129e-06) (2.825757e-09 -1.101371e-10 2.364794e-06))
98            	((-2.981924e-03 4.020797e-05 -7.207702e-05) (9.814981e-03 -5.571250e-05 -4.114547e-05)) ((2.684689e-08 -2.548194e-06 -3.940936e-06) (2.678461e-09 9.841584e-11 2.347136e-06))
99            	((-2.944585e-03 3.919685e-05 -7.257340e-05) (9.729110e-03 -5.509349e-05 -4.093624e-05)) ((2.688246e-08 -2.534287e-06 -3.919075e-06) (2.531486e-09 4.279891e-10 2.329863e-06))
100           	((-2.907849e-03 3.820826e-05 -7.308829e-05) (9.645061e-03 -5.448834e-05 -4.073182e-05)) ((2.692438e-08 -2.520720e-06 -3.897025e-06) (2.385168e-09 7.265399e-10 2.312960e-06))
101           	((-2.872280e-03 3.734337e-05 -7.360113e-05) (9.562800e-03 -5.389721e-05 -4.051853e-05)) ((2.696488e-08 -2.507953e-06 -3.877220e-06) (2.239212e-09 1.143002e-09 2.296439e-06))
102           	((-2.838082e-03 3.635787e-05 -7.417189e-05) (9.482322e-03 -5.331857e-05 -4.031090e-05)) ((2.703041e-08 -2.495214e-06 -3.860286e-06) (2.094084e-09 1.513696e-09 2.280324e-06))
103           	((-2.804333e-03 3.522974e-05 -7.469074e-05) (9.403581e-03 -5.274982e-05 -4.009445e-05)) ((2.711248e-08 -2.483841e-06 -3.842830e-06) (1.949334e-09 1.977937e-09 2.264604e-06))
104           	((-2.770344e-03 3.442488e-05 -7.522618e-05) (9.326458e-03 -5.219263e-05 -3.988577e-05)) ((2.717538e-08 -2.473203e-06 -3.822050e-06) (1.806021e-09 2.385866e-09 2.249214e-06))
105           	((-2.736991e-03 3.361874e-05 -7.573711e-05) (9.250874e-03 -5.164869e-05 -3.967026e-05)) ((2.724371e-08 -2.463905e-06 -3.801113e-06) (1.663593e-09 2.913132e-09 2.234120e-06))
106           	((-2.704309e-03 3.282042e-05 -7.621037e-05) (9.176815e-03 -5.111638e-05 -3.946202e-05)) ((2.731190e-08 -2.455495e-06 -3.780488e-06) (1.522517e-09 3.398342e-09 2.219334e-06))
107           	((-2.672301e-03 3.206395e-05 -7.666560e-05) (9.104253e-03 -5.059537e-05 -3.924458e-05)) ((2.737532e-08 -2.447867e-06 -3.760382e-06) (1.381414e-09 4.011747e-09 2.204861e-06))
108           	((-2.640922e-03 3.132119e-05 -7.708739e-05) (9.033151e-03 -5.008515e-05 -3.904530e-05)) ((2.742998e-08 -2.440631e-06 -3.740375e-06) (1.246467e-09 4.465679e-09 2.190693e-06))
109           	((-2.610083e-03 3.059704e-05 -7.749221e-05) (8.963467e-03 -4.958529e-05 -3.883645e-05)) ((2.747977e-08 -2.433783e-06 -3.720262e-06) (1.111067e-09 5.050805e-09 2.176821e-06))
110           	((-2.579695e-03 2.986822e-05 -7.789228e-05) (8.895154e-03 -4.909516e-05 -3.863534e-05)) ((2.752874e-08 -2.427086e-06 -3.699852e-06) (9.773030e-10 5.583683e-09 2.163230e-06))
111           	((-2.549724e-03 2.916448e-05 -7.827853e-05) (8.828169e-03 -4.861462e-05 -3.842772e-05)) ((2.757401e-08 -2.420532e-06 -3.679898e-06) (8.448019e-10 6.211564e-09 2.149914e-06))
112           	((-2.520273e-03 2.849670e-05 -7.867621e-05) (8.762473e-03 -4.814346e-05 -3.822739e-05)) ((2.761673e-08 -2.414135e-06 -3.660302e-06) (7.138806e-10 6.787791e-09 2.136870e-06))
113           	((-2.491335e-03 2.784865e-05 -7.908268e-05) (8.698036e-03 -4.768160e-05 -3.802217e-05)) ((2.766287e-08 -2.408296e-06 -3.640998e-06) (5.850884e-10 7.439241e-09 2.124094e-06))
114           	((-2.462865e-03 2.723506e-05 -7.948785e-05) (8.634821e-03 -4.722872e-05 -3.782595e-05)) ((2.770671e-08 -2.402971e-06 -3.621425e-06) (4.585763e-10 8.023059e-09 2.111575e-06))
115           	((-2.434822e-03 2.666491e-05 -7.989185e-05) (8.572792e-03 -4.678481e-05 -3.762411e-05)) ((2.774745e-08 -2.398322e-06 -3.601536e-06) (3.338888e-10 8.695599e-09 2.099300e-06))
116           	((-2.407179e-03 2.616575e-05 -8.025765e-05) (8.511915e-03 -4.634985e-05 -3.743036e-05)) ((2.777221e-08 -2.394043e-06 -3.581699e-06) (2.112751e-10 9.315043e-09 2.087258e-06))
117           	((-2.379923e-03 2.572559e-05 -8.060466e-05) (8.452158e-03 -4.592396e-05 -3.723040e-05)) ((2.778574e-08 -2.390341e-06 -3.561996e-06) (9.023278e-11 1.003452e-08 2.075447e-06))
118           	((-2.353048e-03 2.530408e-05 -8.092975e-05) (8.393492e-03 -4.550674e-05 -3.703834e-05)) ((2.779145e-08 -2.387110e-06 -3.542226e-06) (-2.876250e-11 1.070689e-08 2.063858e-06))
119           	((-2.326553e-03 2.491050e-05 -8.123124e-05) (8.335889e-03 -4.509792e-05 -3.683923e-05)) ((2.778544e-08 -2.384232e-06 -3.522669e-06) (-1.466714e-10 1.148979e-08 2.052487e-06))
120           	((-2.300436e-03 2.452015e-05 -8.149730e-05) (8.279320e-03 -4.469689e-05 -3.665497e-05)) ((2.776491e-08 -2.381481e-06 -3.503170e-06) (-2.594102e-10 1.215305e-08 2.041329e-06))
121           	((-2.274694e-03 2.418179e-05 -8.172043e-05) (8.223760e-03 -4.430344e-05 -3.646273e-05)) ((2.772412e-08 -2.378703e-06 -3.484279e-06) (-3.712881e-10 1.293594e-08 2.030379e-06))
122           	((-2.249323e-03 2.387439e-05 -8.191304e-05) (8.169183e-03 -4.391735e-05 -3.627967e-05)) ((2.766618e-08 -2.375991e-06 -3.465756e-06) (-4.804996e-10 1.365764e-08 2.019635e-06))
123           	((-2.224313e-03 2.358730e-05 -8.209049e-05) (8.115565e-03 -4.353852e-05 -3.609050e-05)) ((2.759785e-08 -2.373495e-06 -3.447436e-06) (-5.879812e-10 1.447769e-08 2.009092e-06))
124           	((-2.199652e-03 2.330517e-05 -8.225328e-05) (8.062880e-03 -4.316646e-05 -3.590933e-05)) ((2.752118e-08 -2.371232e-06 -3.429108e-06) (-6.933888e-10 1.524756e-08 1.998745e-06))
125           	((-2.175327e-03 2.303250e-05 -8.241268e-05) (8.011104e-03 -4.280100e-05 -3.572383e-05)) ((2.743912e-08 -2.369350e-06 -3.410790e-06) (-7.961086e-10 1.609622e-08 1.988586e-06))
126           	((-2.151328e-03 2.280087e-05 -8.253739e-05) (7.960214e-03 -4.244197e-05 -3.554716e-05)) ((2.734052e-08 -2.367542e-06 -3.392831e-06) (-8.960652e-10 1.688514e-08 1.978612e-06))
127           	((-2.127644e-03 2.261273e-05 -8.264818e-05) (7.910188e-03 -4.208952e-05 -3.536555e-05)) ((2.722870e-08 -2.365986e-06 -3.375153e-06) (-9.935836e-10 1.775852e-08 1.968820e-06))
128           	((-2.104268e-03 2.243134e-05 -8.273408e-05) (7.861004e-03 -4.174334e-05 -3.519248e-05)) ((2.710573e-08 -2.364644e-06 -3.357598e-06) (-1.088468e-09 1.857372e-08 1.959205e-06))
129           	((-2.081193e-03 2.225805e-05 -8.280395e-05) (7.812641e-03 -4.140316e-05 -3.501428e-05)) ((2.697434e-08 -2.363600e-06 -3.340223e-06) (-1.181179e-09 1.947385e-08 1.949764e-06))
130           	((-2.058416e-03 2.207225e-05 -8.285769e-05) (7.765079e-03 -4.106850e-05 -3.484413e-05)) ((2.683646e-08 -2.362822e-06 -3.322862e-06) (-1.271451e-09 2.031930e-08 1.940492e-06))
131           	((-2.035932e-03 2.193214e-05 -8.286692e-05) (7.718300e-03 -4.073944e-05 -3.466686e-05)) ((2.667740e-08 -2.362038e-06 -3.306202e-06) (-1.360237e-09 2.126843e-08 1.931388e-06))
132           	((-2.013729e-03 2.179362e-05 -8.282987e-05) (7.672285e-03 -4.041571e-05 -3.450473e-05)) ((2.649924e-08 -2.361213e-06 -3.290044e-06) (-1.443553e-09 2.208637e-08 1.922452e-06))
133           	((-1.991816e-03 2.167850e-05 -8.276442e-05) (7.627017e-03 -4.009711e-05 -3.433535e-05)) ((2.630486e-08 -2.360408e-06 -3.274057e-06) (-1.525639e-09 2.300636e-08 1.913680e-06))
134           	((-1.970209e-03 2.155935e-05 -8.267553e-05) (7.582479e-03 -3.978325e-05 -3.417599e-05)) ((2.609858e-08 -2.359554e-06 -3.258246e-06) (-1.604761e-09 2.384375e-08 1.905066e-06))
135           	((-1.948854e-03 2.142831e-05 -8.257131e-05) (7.538656e-03 -3.947395e-05 -3.401078e-05)) ((2.588621e-08 -2.358929e-06 -3.242442e-06) (-1.681962e-09 2.476256e-08 1.896609e-06))
136           	((-1.927735e-03 2.131417e-05 -8.243094e-05) (7.495526e-03 -3.916903e-05 -3.385319e-05)) ((2.566099e-08 -2.358309e-06 -3.226942e-06) (-1.757083e-09 2.562039e-08 1.888303e-06))
137           	((-1.907014e-03 2.108289e-05 -8.227998e-05) (7.453084e-03 -3.886784e-05 -3.369178e-05)) ((2.543903e-08 -2.357615e-06 -3.212657e-06) (-1.829482e-09 2.653519e-08 1.880155e-06))
138           	((-1.886411e-03 2.091825e-05 -8.211323e-05) (7.411316e-03 -3.856998e-05 -3.353921e-05)) ((2.520727e-08 -2.357272e-06 -3.197777e-06) (-1.899229e-09 2.736330e-08 1.872163e-06))
139           	((-1.865801e-03 2.094696e-05 -8.194030e-05) (7.370177e-03 -3.827758e-05 -3.338274e-05)) ((2.496021e-08 -2.357659e-06 -3.181647e-06) (-1.966523e-09 2.825097e-08 1.864301e-06))
140           	((-1.845734e-03 2.081826e-05 -8.173281e-05) (7.329659e-03 -3.799010e-05 -3.323546e-05)) ((2.471980e-08 -2.358367e-06 -3.166657e-06) (-2.031364e-09 2.907279e-08 1.856566e-06))
141           	((-1.825801e-03 2.071117e-05 -8.150764e-05) (7.289769e-03 -3.770595e-05 -3.308255e-05)) ((2.447001e-08 -2.358834e-06 -3.151910e-06) (-2.094456e-09 2.996258e-08 1.848976e-06))
142           	((-1.806033e-03 2.061781e-05 -8.127773e-05) (7.250480e-03 -3.742541e-05 -3.293790e-05)) ((2.421472e-08 -2.359213e-06 -3.137268e-06) (-2.155395e-09 3.077586e-08 1.841520e-06))
143           	((-1.786492e-03 2.054693e-05 -8.103453e-05) (7.211777e-03 -3.714873e-05 -3.278650e-05)) ((2.395214e-08 -2.359610e-06 -3.122959e-06) (-2.215097e-09 3.166921e-08 1.834199e-06))
144           	((-1.767212e-03 2.048849e-05 -8.076186e-05) (7.173651e-03 -3.687574e-05 -3.265086e-05)) ((2.367959e-08 -2.359954e-06 -3.108853e-06) (-2.269618e-09 3.240506e-08 1.827010e-06))
145           	((-1.747942e-03 2.045110e-05 -8.045643e-05) (7.136082e-03 -3.660641e-05 -3.250804e-05)) ((2.339850e-08 -2.360441e-06 -3.094126e-06) (-2.323301e-09 3.322418e-08 1.819943e-06))
146           	((-1.728995e-03 2.039423e-05 -8.016645e-05) (7.099055e-03 -3.634035e-05 -3.237477e-05)) ((2.311022e-08 -2.359688e-06 -3.080269e-06) (-2.374508e-09 3.394969e-08 1.812996e-06))
147           	((-1.710332e-03 2.029870e-05 -7.980200e-05) (7.062576e-03 -3.607701e-05 -3.223568e-05)) ((2.282309e-08 -2.360380e-06 -3.067007e-06) (-2.424182e-09 3.473566e-08 1.806181e-06))
148           	((-1.692171e-03 2.013243e-05 -7.943812e-05) (7.026647e-03 -3.581587e-05 -3.210469e-05)) ((2.254475e-08 -2.360999e-06 -3.054768e-06) (-2.472242e-09 3.545304e-08 1.799502e-06))
149           	((-1.674175e-03 1.996251e-05 -7.908390e-05) (6.991258e-03 -3.555694e-05 -3.197046e-05)) ((2.227249e-08 -2.361666e-06 -3.042493e-06) (-2.517992e-09 3.620922e-08 1.792961e-06))
150           	((-1.656292e-03 1.978735e-05 -7.873523e-05) (6.956384e-03 -3.530031e-05 -3.184533e-05)) ((2.200485e-08 -2.362312e-06 -3.029862e-06) (-2.561542e-09 3.687597e-08 1.786542e-06))
151           	((-1.638495e-03 1.965611e-05 -7.837449e-05) (6.922004e-03 -3.504636e-05 -3.171568e-05)) ((2.173332e-08 -2.362791e-06 -3.017309e-06) (-2.603232e-09 3.759613e-08 1.780237e-06))
152           	((-1.620817e-03 1.955497e-05 -7.800924e-05) (6.888103e-03 -3.479530e-05 -3.159475e-05)) ((2.146041e-08 -2.363224e-06 -3.004765e-06) (-2.642952e-09 3.822994e-08 1.774042e-06))
153           	((-1.603310e-03 1.948071e-05 -7.764931e-05) (6.854672e-03 -3.454730e-05 -3.146862e-05)) ((2.119134e-08 -2.363753e-06 -2.992351e-06) (-2.681183e-09 3.892491e-08 1.767958e-06))
154           	((-1.585987e-03 1.942040e-05 -7.729831e-05) (6.821703e-03 -3.430225e-05 -3.135131e-05)) ((2.092805e-08 -2.364254e-06 -2.979976e-06) (-2.717661e-09 3.953395e-08 1.761982e-06))
155           	((-1.568714e-03 1.931544e-05 -7.695362e-05) (6.789182e-03 -3.405977e-05 -3.122718e-05)) ((2.066870e-08 -2.364418e-06 -2.967177e-06) (-2.753366e-09 4.021887e-08 1.756108e-06))
156           	((-1.551692e-03 1.924387e-05 -7.656434e-05) (6.757102e-03 -3.381948e-05 -3.111816e-05)) ((2.040072e-08 -2.364455e-06 -2.955049e-06) (-2.784352e-09 4.075091e-08 1.750336e-06))