# Forces      
# CofR        : (0.000000e+00 0.000000e+00 0.000000e+00)
# Time        forces(pressure viscous)	moments(pressure viscous)
0             	((0.000000e+00 0.000000e+00 0.000000e+00) (0.000000e+00 0.000000e+00 0.000000e+00)) ((0.000000e+00 0.000000e+00 0.000000e+00) (0.000000e+00 0.000000e+00 0.000000e+00))
1             	((-1.136131e+00 3.372253e-02 -2.493457e-03) (4.405696e-03 -3.839473e-05 -6.304788e-05)) ((-3.945549e-06 -1.412298e-04 -9.076271e-04) (9.543134e-09 -5.477511e-06 1.326197e-06))
2             	((-9.632547e-01 2.713170e-02 -3.322164e-03) (8.018291e-02 -7.116676e-04 4.804137e-04)) ((-2.827948e-06 -8.205568e-05 -7.837192e-04) (-1.855774e-07 -1.731931e-06 2.202823e-05))
3             	((-5.400284e-01 1.336927e-02 -1.117801e-03) (9.455990e-02 -7.868498e-04 7.834319e-04)) ((-1.378979e-06 -1.531781e-05 -4.302456e-04) (-2.400966e-07 -3.141518e-06 2.647728e-05))
4             	((-9.095459e-02 -3.361038e-04 1.781579e-03) (7.556237e-02 -5.223849e-04 6.382339e-04)) ((-1.191305e-07 3.373167e-05 -5.881074e-05) (-1.683803e-07 -2.938802e-06 2.169986e-05))
5             	((2.319055e-01 -8.966445e-03 4.549100e-03) (4.299400e-02 -1.785797e-04 1.583972e-04)) ((3.791939e-07 4.695492e-05 1.989759e-04) (-2.977199e-08 -7.809413e-07 1.328318e-05))
6             	((3.850890e-01 -1.229247e-02 5.016130e-03) (1.183086e-02 9.455322e-05 -2.892139e-04)) ((6.541350e-07 4.541945e-05 3.063384e-04) (9.517476e-08 1.106968e-06 5.273172e-06))
7             	((3.839676e-01 -1.102123e-02 4.159586e-03) (-7.056190e-03 1.916648e-04 -4.329245e-04)) ((6.352295e-07 3.174177e-05 2.937820e-04) (1.385508e-07 1.359412e-06 3.313083e-08))
8             	((2.831981e-01 -7.365562e-03 2.801770e-03) (-1.262418e-02 1.679685e-04 -3.191761e-04)) ((4.153975e-07 1.264326e-05 2.088859e-04) (1.108445e-07 3.569128e-07 -2.113287e-06))
9             	((1.377002e-01 -3.003299e-03 1.539208e-03) (-7.084115e-03 5.576244e-05 -1.288978e-04)) ((6.385214e-08 -8.335438e-06 9.461472e-05) (5.720762e-08 -8.108873e-07 -1.617558e-06))
10            	((2.353419e-03 5.314094e-04 6.971415e-04) (3.333137e-03 -6.042162e-05 1.100076e-05)) ((-2.662458e-07 -2.469871e-05 -7.844162e-06) (1.199417e-08 -1.413852e-06 4.786654e-07))
11            	((-8.987422e-02 2.600979e-03 3.316792e-04) (1.430592e-02 -1.575257e-04 7.962468e-05)) ((-4.936695e-07 -3.368425e-05 -7.615961e-05) (-1.522458e-08 -1.457176e-06 3.029949e-06))
12            	((-1.277811e-01 3.179088e-03 3.148914e-04) (2.313516e-02 -2.201018e-04 9.439230e-05)) ((-5.788377e-07 -3.475437e-05 -1.038011e-04) (-2.605673e-08 -1.141029e-06 5.262320e-06))
13            	((-1.189667e-01 2.625172e-03 4.608245e-04) (2.841875e-02 -2.466006e-04 7.669380e-05)) ((-5.322484e-07 -2.957671e-05 -9.787097e-05) (-2.471473e-08 -6.683354e-07 6.705593e-06))
14            	((-8.108948e-02 1.506453e-03 6.107621e-04) (2.993460e-02 -2.428684e-04 3.997107e-05)) ((-3.967823e-07 -2.104501e-05 -7.108279e-05) (-1.523151e-08 -1.687959e-07 7.213075e-06))
15            	((-3.411340e-02 3.310163e-04 6.567511e-04) (2.839238e-02 -2.195183e-04 -5.386589e-06)) ((-2.255732e-07 -1.208766e-05 -3.752372e-05) (-1.802490e-09 2.855906e-07 6.899422e-06))
16            	((6.011148e-03 -5.087528e-04 5.527665e-04) (2.506162e-02 -1.889027e-04 -4.809446e-05)) ((-6.609953e-08 -4.643566e-06 -7.744666e-06) (1.116787e-08 6.344027e-07 6.050890e-06))
17            	((3.034438e-02 -9.376177e-04 3.466499e-04) (2.132361e-02 -1.611410e-04 -7.761716e-05)) ((5.143173e-08 -1.427602e-07 1.091650e-05) (1.993954e-08 8.289656e-07 5.019550e-06))
18            	((3.723586e-02 -9.406171e-04 1.168292e-04) (1.825238e-02 -1.420788e-04 -8.808437e-05)) ((1.087846e-07 1.229012e-06 1.787637e-05) (2.254550e-08 8.557802e-07 4.104564e-06))
19            	((3.029569e-02 -6.698361e-04 -5.553828e-05) (1.638478e-02 -1.328541e-04 -8.094322e-05)) ((1.112574e-07 4.233871e-08 1.505510e-05) (1.935596e-08 7.502097e-07 3.477500e-06))
20            	((1.582700e-02 -2.937785e-04 -1.237163e-04) (1.573481e-02 -1.310775e-04 -6.319610e-05)) ((7.051168e-08 -2.715589e-06 6.477105e-06) (1.247278e-08 5.782067e-07 3.179624e-06))
21            	((2.332298e-04 4.667365e-05 -9.296400e-05) (1.597122e-02 -1.331972e-04 -4.335684e-05)) ((1.119129e-08 -5.824650e-06 -3.625744e-06) (4.659578e-09 4.086995e-07 3.151038e-06))
22            	((-1.178631e-02 2.687794e-04 -1.279368e-06) (1.662962e-02 -1.358069e-04 -2.787218e-05)) ((-4.374311e-08 -8.300058e-06 -1.191000e-05) (-1.947320e-09 2.867318e-07 3.281427e-06))
23            	((-1.800179e-02 3.459595e-04 1.052473e-04) (1.728200e-02 -1.364494e-04 -2.006729e-05)) ((-7.924950e-08 -9.641952e-06 -1.670117e-05) (-6.146195e-09 2.312118e-07 3.454884e-06))
24            	((-1.851279e-02 3.054264e-04 1.851767e-04) (1.763876e-02 -1.338918e-04 -2.030968e-05)) ((-8.998281e-08 -9.762997e-06 -1.781363e-05) (-7.675989e-09 2.385871e-07 3.583536e-06))
25            	((-1.496964e-02 1.926671e-04 2.174870e-04) (1.758257e-02 -1.282020e-04 -2.677469e-05)) ((-7.829895e-08 -8.944719e-06 -1.614524e-05) (-7.010673e-09 2.897919e-07 3.621331e-06))
26            	((-9.622119e-03 6.357960e-05 2.000921e-04) (1.714629e-02 -1.203668e-04 -3.675236e-05)) ((-5.171183e-08 -7.611494e-06 -1.295462e-05) (-4.945407e-09 3.565821e-07 3.562413e-06))
27            	((-4.501223e-03 -3.838033e-05 1.470509e-04) (1.645922e-02 -1.117764e-04 -4.687289e-05)) ((-1.994992e-08 -6.195956e-06 -9.504875e-06) (-2.585711e-09 4.185129e-07 3.429841e-06))
28            	((-9.354330e-04 -9.697168e-05 8.186386e-05) (1.568356e-02 -1.036777e-04 -5.523223e-05)) ((7.500284e-09 -5.078934e-06 -6.813555e-06) (-5.307710e-10 4.553047e-07 3.261439e-06))
29            	((5.973880e-04 -1.073755e-04 2.482195e-05) (1.496022e-02 -9.688503e-05 -5.975993e-05)) ((2.522520e-08 -4.419522e-06 -5.291153e-06) (4.472187e-10 4.716941e-07 3.094802e-06))
30            	((3.563735e-04 -8.050122e-05 -9.835323e-06) (1.437448e-02 -9.168637e-05 -6.222478e-05)) ((3.140191e-08 -4.236813e-06 -4.845925e-06) (9.959844e-10 4.524506e-07 2.955179e-06))
31            	((-1.013452e-03 -3.610034e-05 -1.881909e-05) (1.395045e-02 -8.789163e-05 -6.104907e-05)) ((2.793966e-08 -4.405724e-06 -5.213457e-06) (3.493916e-10 4.333975e-07 2.853312e-06))
32            	((-2.753366e-03 4.796798e-06 -6.275594e-06) (1.366427e-02 -8.500592e-05 -6.005548e-05)) ((1.853969e-08 -4.775517e-06 -6.036470e-06) (-1.024057e-10 3.974104e-07 2.788234e-06))
33            	((-4.238040e-03 3.075559e-05 1.709921e-05) (1.346522e-02 -8.246998e-05 -5.647507e-05)) ((8.154609e-09 -5.155020e-06 -6.933123e-06) (-1.584668e-09 3.935312e-07 2.750675e-06))
34            	((-5.112855e-03 3.708066e-05 4.059389e-05) (1.329760e-02 -7.984518e-05 -5.712096e-05)) ((4.679041e-10 -5.423366e-06 -7.624158e-06) (-1.424709e-09 3.620199e-07 2.727706e-06))
35            	((-5.305340e-03 2.866342e-05 5.566759e-05) (1.311781e-02 -7.691470e-05 -5.625517e-05)) ((-2.664163e-09 -5.500395e-06 -7.941710e-06) (-1.945999e-09 3.661013e-07 2.707196e-06))
36            	((-4.956905e-03 1.068588e-05 5.878440e-05) (1.290254e-02 -7.367077e-05 -5.693472e-05)) ((-1.173638e-09 -5.399829e-06 -7.924673e-06) (-1.902106e-09 3.695185e-07 2.681045e-06))
37            	((-4.310065e-03 -8.147888e-06 5.045384e-05) (1.264849e-02 -7.025543e-05 -5.788817e-05)) ((3.749081e-09 -5.165472e-06 -7.637323e-06) (-1.749768e-09 3.778417e-07 2.645924e-06))
38            	((-3.614199e-03 -2.148712e-05 3.418222e-05) (1.236676e-02 -6.688480e-05 -5.883792e-05)) ((1.048082e-08 -4.861680e-06 -7.196233e-06) (-1.559783e-09 3.857190e-07 2.602148e-06))
39            	((-3.055121e-03 -2.777574e-05 1.560513e-05) (1.207545e-02 -6.374532e-05 -5.953784e-05)) ((1.681756e-08 -4.568711e-06 -6.745988e-06) (-1.406619e-09 3.896417e-07 2.552782e-06))
40            	((-2.721842e-03 -2.757593e-05 -7.252572e-07) (1.179248e-02 -6.094363e-05 -5.983957e-05)) ((2.145629e-08 -4.335644e-06 -6.382355e-06) (-1.336254e-09 3.886105e-07 2.502102e-06))
41            	((-2.614929e-03 -2.369028e-05 -1.185325e-05) (1.153052e-02 -5.849377e-05 -5.972908e-05)) ((2.383387e-08 -4.185572e-06 -6.158242e-06) (-1.362028e-09 3.832308e-07 2.453938e-06))
42            	((-2.669729e-03 -1.844448e-05 -1.717422e-05) (1.129496e-02 -5.634194e-05 -5.929807e-05)) ((2.419649e-08 -4.111447e-06 -6.060212e-06) (-1.467329e-09 3.750612e-07 2.410688e-06))
43            	((-2.800724e-03 -1.367867e-05 -1.795008e-05) (1.108453e-02 -5.440631e-05 -5.869029e-05)) ((2.316257e-08 -4.089255e-06 -6.043186e-06) (-1.617884e-09 3.659112e-07 2.372921e-06))
44            	((-2.927492e-03 -1.136120e-05 -1.624920e-05) (1.089375e-02 -5.259909e-05 -5.804113e-05)) ((2.167797e-08 -4.089724e-06 -6.070681e-06) (-1.777070e-09 3.572323e-07 2.340012e-06))
45            	((-2.997825e-03 -1.178090e-05 -1.435372e-05) (1.071566e-02 -5.084569e-05 -5.743820e-05)) ((2.051200e-08 -4.085629e-06 -6.102082e-06) (-1.920985e-09 3.498249e-07 2.310757e-06))
46            	((-2.991651e-03 -1.423460e-05 -1.397118e-05) (1.054407e-02 -4.910669e-05 -5.690890e-05)) ((2.008722e-08 -4.059827e-06 -6.109473e-06) (-2.040519e-09 3.437716e-07 2.283751e-06))
47            	((-2.916076e-03 -1.783761e-05 -1.593406e-05) (1.037485e-02 -4.737451e-05 -5.643734e-05)) ((2.059045e-08 -4.006552e-06 -6.079426e-06) (-2.136260e-09 3.387060e-07 2.257781e-06))
48            	((-2.796103e-03 -2.141548e-05 -2.018857e-05) (1.020626e-02 -4.566544e-05 -5.598110e-05)) ((2.184676e-08 -3.928769e-06 -6.009996e-06) (-2.218095e-09 3.340432e-07 2.232004e-06))
49            	((-2.659849e-03 -2.365884e-05 -2.616139e-05) (1.003862e-02 -4.401120e-05 -5.549240e-05)) ((2.359259e-08 -3.833974e-06 -5.903482e-06) (-2.299090e-09 3.291172e-07 2.205989e-06))
50            	((-2.534075e-03 -2.487632e-05 -3.271768e-05) (9.873564e-03 -4.243604e-05 -5.493194e-05)) ((2.539590e-08 -3.735040e-06 -5.785844e-06) (-2.391151e-09 3.234623e-07 2.179832e-06))
51            	((-2.434334e-03 -2.523439e-05 -3.894864e-05) (9.713200e-03 -4.095146e-05 -5.427878e-05)) ((2.696669e-08 -3.641538e-06 -5.672832e-06) (-2.499657e-09 3.168788e-07 2.153994e-06))
52            	((-2.362763e-03 -2.495012e-05 -4.419103e-05) (9.559129e-03 -3.956006e-05 -5.353517e-05)) ((2.810637e-08 -3.561112e-06 -5.573693e-06) (-2.625005e-09 3.093779e-07 2.128915e-06))
53            	((-2.314273e-03 -2.401268e-05 -4.835402e-05) (9.412099e-03 -3.825617e-05 -5.272371e-05)) ((2.884416e-08 -3.493264e-06 -5.484629e-06) (-2.762663e-09 3.012049e-07 2.104874e-06))
54            	((-2.280827e-03 -2.337272e-05 -5.153417e-05) (9.272128e-03 -3.702512e-05 -5.187491e-05)) ((2.926237e-08 -3.438631e-06 -5.415417e-06) (-2.906960e-09 2.926159e-07 2.082064e-06))
55            	((-2.251743e-03 -2.312172e-05 -5.402872e-05) (9.138625e-03 -3.584698e-05 -5.101099e-05)) ((2.947830e-08 -3.392203e-06 -5.358068e-06) (-3.053109e-09 2.838555e-07 2.060578e-06))
56            	((-2.219189e-03 -2.319982e-05 -5.625774e-05) (9.010601e-03 -3.470928e-05 -5.014952e-05)) ((2.964128e-08 -3.348861e-06 -5.304838e-06) (-3.196872e-09 2.751729e-07 2.040267e-06))
57            	((-2.178912e-03 -2.341783e-05 -5.859514e-05) (8.887044e-03 -3.360528e-05 -4.929969e-05)) ((2.986986e-08 -3.304742e-06 -5.249225e-06) (-3.336513e-09 2.666702e-07 2.020894e-06))
58            	((-2.131097e-03 -2.374206e-05 -6.124081e-05) (8.767173e-03 -3.253153e-05 -4.846346e-05)) ((3.021901e-08 -3.257904e-06 -5.190742e-06) (-3.472343e-09 2.583632e-07 2.002258e-06))
59            	((-2.078376e-03 -2.414725e-05 -6.432181e-05) (8.650561e-03 -3.148661e-05 -4.764116e-05)) ((3.075323e-08 -3.208155e-06 -5.129169e-06) (-3.604875e-09 2.501653e-07 1.984237e-06))
60            	((-2.023886e-03 -2.446406e-05 -6.766106e-05) (8.537044e-03 -3.047107e-05 -4.682594e-05)) ((3.139339e-08 -3.155701e-06 -5.064659e-06) (-3.736846e-09 2.419833e-07 1.966760e-06))
61            	((-1.970522e-03 -2.454483e-05 -7.108423e-05) (8.426631e-03 -2.948848e-05 -4.601371e-05)) ((3.206990e-08 -3.101806e-06 -4.997844e-06) (-3.869628e-09 2.338035e-07 1.949785e-06))
62            	((-1.920508e-03 -2.439616e-05 -7.444197e-05) (8.319419e-03 -2.854154e-05 -4.520434e-05)) ((3.273014e-08 -3.048233e-06 -4.930855e-06) (-4.003462e-09 2.256152e-07 1.933309e-06))
63            	((-1.874689e-03 -2.403800e-05 -7.762593e-05) (8.215507e-03 -2.763094e-05 -4.440022e-05)) ((3.333718e-08 -2.996199e-06 -4.865456e-06) (-4.137723e-09 2.174326e-07 1.917358e-06))
64            	((-1.832633e-03 -2.351716e-05 -8.065502e-05) (8.114913e-03 -2.675598e-05 -4.360908e-05)) ((3.389198e-08 -2.946927e-06 -4.802114e-06) (-4.270007e-09 2.092615e-07 1.901954e-06))
65            	((-1.793663e-03 -2.299200e-05 -8.347051e-05) (8.017574e-03 -2.591373e-05 -4.283529e-05)) ((3.438917e-08 -2.899609e-06 -4.741876e-06) (-4.398939e-09 2.011707e-07 1.887119e-06))
66            	((-1.756549e-03 -2.252394e-05 -8.610886e-05) (7.923361e-03 -2.510006e-05 -4.208012e-05)) ((3.484696e-08 -2.853676e-06 -4.684788e-06) (-4.524218e-09 1.932374e-07 1.872862e-06))
67            	((-1.720204e-03 -2.210292e-05 -8.866093e-05) (7.832080e-03 -2.431153e-05 -4.134594e-05)) ((3.529323e-08 -2.808569e-06 -4.630036e-06) (-4.644920e-09 1.855167e-07 1.859168e-06))
68            	((-1.683954e-03 -2.169330e-05 -9.120104e-05) (7.743524e-03 -2.354594e-05 -4.063399e-05)) ((3.574705e-08 -2.763707e-06 -4.576856e-06) (-4.760176e-09 1.780460e-07 1.846001e-06))
69            	((-1.647589e-03 -2.129876e-05 -9.383661e-05) (7.657506e-03 -2.280185e-05 -3.994758e-05)) ((3.623466e-08 -2.719357e-06 -4.524482e-06) (-4.868469e-09 1.708096e-07 1.833315e-06))
70            	((-1.611304e-03 -2.092308e-05 -9.651364e-05) (7.573880e-03 -2.207811e-05 -3.928537e-05)) ((3.673806e-08 -2.674608e-06 -4.472514e-06) (-4.969665e-09 1.638175e-07 1.821072e-06))
71            	((-1.575350e-03 -2.050911e-05 -9.921692e-05) (7.492541e-03 -2.137418e-05 -3.864428e-05)) ((3.724603e-08 -2.629339e-06 -4.420737e-06) (-5.064311e-09 1.570810e-07 1.809242e-06))
72            	((-1.540055e-03 -2.002878e-05 -1.019414e-04) (7.413409e-03 -2.069019e-05 -3.802375e-05)) ((3.775357e-08 -2.583858e-06 -4.369261e-06) (-5.152173e-09 1.505888e-07 1.797798e-06))
73            	((-1.505701e-03 -1.947188e-05 -1.046657e-04) (7.336427e-03 -2.002623e-05 -3.742406e-05)) ((3.825222e-08 -2.538450e-06 -4.318528e-06) (-5.232712e-09 1.443276e-07 1.786724e-06))
74            	((-1.472434e-03 -1.887078e-05 -1.074271e-04) (7.261543e-03 -1.938197e-05 -3.684899e-05)) ((3.874942e-08 -2.493964e-06 -4.268691e-06) (-5.304650e-09 1.382543e-07 1.776007e-06))
75            	((-1.440256e-03 -1.825784e-05 -1.101391e-04) (7.188702e-03 -1.875655e-05 -3.629826e-05)) ((3.922498e-08 -2.449792e-06 -4.219803e-06) (-5.368055e-09 1.323728e-07 1.765636e-06))
76            	((-1.409067e-03 -1.764284e-05 -1.127847e-04) (7.117843e-03 -1.814883e-05 -3.576975e-05)) ((3.967563e-08 -2.405894e-06 -4.172120e-06) (-5.423595e-09 1.267063e-07 1.755604e-06))
77            	((-1.378733e-03 -1.703691e-05 -1.153843e-04) (7.048896e-03 -1.755755e-05 -3.526299e-05)) ((4.010833e-08 -2.362448e-06 -4.125866e-06) (-5.471382e-09 1.212636e-07 1.745902e-06))
78            	((-1.349115e-03 -1.643564e-05 -1.179558e-04) (6.981788e-03 -1.698141e-05 -3.477740e-05)) ((4.052862e-08 -2.319488e-06 -4.081197e-06) (-5.511705e-09 1.160504e-07 1.736523e-06))
79            	((-1.320090e-03 -1.585798e-05 -1.205742e-04) (6.916447e-03 -1.641921e-05 -3.431526e-05)) ((4.095600e-08 -2.277623e-06 -4.037832e-06) (-5.544070e-09 1.110387e-07 1.727458e-06))
80            	((-1.291573e-03 -1.531362e-05 -1.231815e-04) (6.852801e-03 -1.586979e-05 -3.387470e-05)) ((4.137822e-08 -2.236078e-06 -3.995371e-06) (-5.569206e-09 1.062389e-07 1.718694e-06))
81            	((-1.263530e-03 -1.478715e-05 -1.257737e-04) (6.790784e-03 -1.533242e-05 -3.345240e-05)) ((4.179618e-08 -2.194710e-06 -3.953700e-06) (-5.588245e-09 1.016718e-07 1.710216e-06))
82            	((-1.235961e-03 -1.426049e-05 -1.283672e-04) (6.730335e-03 -1.480662e-05 -3.304715e-05)) ((4.221563e-08 -2.153676e-06 -3.912780e-06) (-5.601667e-09 9.733465e-08 1.702011e-06))
83            	((-1.208875e-03 -1.370777e-05 -1.309642e-04) (6.671400e-03 -1.429216e-05 -3.265846e-05)) ((4.263680e-08 -2.113055e-06 -3.872697e-06) (-5.609672e-09 9.321890e-08 1.694070e-06))
84            	((-1.182293e-03 -1.314340e-05 -1.336172e-04) (6.613929e-03 -1.378876e-05 -3.228921e-05)) ((4.307264e-08 -2.073511e-06 -3.833316e-06) (-5.611507e-09 8.928183e-08 1.686384e-06))
85            	((-1.156216e-03 -1.258171e-05 -1.362451e-04) (6.557875e-03 -1.329583e-05 -3.193835e-05)) ((4.350478e-08 -2.034325e-06 -3.794457e-06) (-5.607518e-09 8.552209e-08 1.678944e-06))
86            	((-1.130639e-03 -1.201636e-05 -1.388260e-04) (6.503191e-03 -1.281278e-05 -3.160353e-05)) ((4.392908e-08 -1.995368e-06 -3.756235e-06) (-5.598384e-09 8.195543e-08 1.671743e-06))
87            	((-1.105547e-03 -1.144089e-05 -1.413654e-04) (6.449833e-03 -1.233908e-05 -3.128432e-05)) ((4.434792e-08 -1.956770e-06 -3.718797e-06) (-5.584368e-09 7.857802e-08 1.664779e-06))
88            	((-1.080914e-03 -1.084086e-05 -1.438628e-04) (6.397757e-03 -1.187430e-05 -3.098071e-05)) ((4.476094e-08 -1.918563e-06 -3.682331e-06) (-5.565479e-09 7.538299e-08 1.658048e-06))
89            	((-1.056724e-03 -1.023959e-05 -1.463757e-04) (6.346923e-03 -1.141796e-05 -3.069568e-05)) ((4.518303e-08 -1.881362e-06 -3.646713e-06) (-5.540840e-09 7.233064e-08 1.651551e-06))
90            	((-1.032950e-03 -9.658876e-06 -1.488332e-04) (6.297290e-03 -1.096932e-05 -3.042810e-05)) ((4.559883e-08 -1.844424e-06 -3.611694e-06) (-5.510639e-09 6.942252e-08 1.645282e-06))
91            	((-1.009576e-03 -9.097668e-06 -1.512253e-04) (6.248819e-03 -1.052763e-05 -3.017535e-05)) ((4.600755e-08 -1.807636e-06 -3.577270e-06) (-5.475523e-09 6.667676e-08 1.639239e-06))
92            	((-9.865789e-04 -8.548919e-06 -1.535690e-04) (6.201472e-03 -1.009233e-05 -2.993672e-05)) ((4.641444e-08 -1.771180e-06 -3.543424e-06) (-5.435765e-09 6.409113e-08 1.633418e-06))
93            	((-9.639275e-04 -7.998954e-06 -1.558710e-04) (6.155213e-03 -9.663037e-06 -2.971187e-05)) ((4.681910e-08 -1.735195e-06 -3.510306e-06) (-5.391456e-09 6.166177e-08 1.627815e-06))
94            	((-9.416496e-04 -7.463380e-06 -1.582012e-04) (6.110008e-03 -9.239295e-06 -2.950358e-05)) ((4.724237e-08 -1.700194e-06 -3.477506e-06) (-5.341756e-09 5.935112e-08 1.622427e-06))
95            	((-9.197462e-04 -6.978543e-06 -1.604825e-04) (6.065826e-03 -8.820593e-06 -2.931061e-05)) ((4.766452e-08 -1.665628e-06 -3.445236e-06) (-5.287073e-09 5.716087e-08 1.617249e-06))
96            	((-8.982182e-04 -6.535112e-06 -1.627013e-04) (6.022637e-03 -8.406165e-06 -2.913030e-05)) ((4.808157e-08 -1.631399e-06 -3.413491e-06) (-5.228123e-09 5.511021e-08 1.612282e-06))
97            	((-8.770534e-04 -6.114493e-06 -1.648710e-04) (5.980414e-03 -7.995678e-06 -2.896203e-05)) ((4.849605e-08 -1.597654e-06 -3.382276e-06) (-5.165061e-09 5.319946e-08 1.607525e-06))
98            	((-8.562459e-04 -5.692647e-06 -1.669970e-04) (5.939129e-03 -7.589053e-06 -2.880558e-05)) ((4.890777e-08 -1.564412e-06 -3.351699e-06) (-5.097961e-09 5.142513e-08 1.602976e-06))
99            	((-8.357804e-04 -5.278901e-06 -1.691386e-04) (5.898755e-03 -7.186229e-06 -2.866399e-05)) ((4.933020e-08 -1.532304e-06 -3.321585e-06) (-5.025990e-09 4.975017e-08 1.598634e-06))
100           	((-8.156444e-04 -4.890381e-06 -1.712237e-04) (5.859265e-03 -6.786886e-06 -2.853624e-05)) ((4.974644e-08 -1.500584e-06 -3.291757e-06) (-4.949544e-09 4.817932e-08 1.594494e-06))
101           	((-7.958264e-04 -4.521684e-06 -1.732400e-04) (5.820632e-03 -6.390654e-06 -2.841985e-05)) ((5.015405e-08 -1.469127e-06 -3.262289e-06) (-4.869480e-09 4.673272e-08 1.590553e-06))
102           	((-7.763186e-04 -4.167098e-06 -1.752012e-04) (5.782831e-03 -5.997243e-06 -2.831421e-05)) ((5.055671e-08 -1.438078e-06 -3.233271e-06) (-4.786104e-09 4.541186e-08 1.586810e-06))
103           	((-7.571196e-04 -3.814755e-06 -1.771113e-04) (5.745838e-03 -5.606474e-06 -2.821902e-05)) ((5.095393e-08 -1.407502e-06 -3.204874e-06) (-4.699587e-09 4.421520e-08 1.583263e-06))
104           	((-7.382189e-04 -3.480894e-06 -1.790290e-04) (5.709631e-03 -5.218065e-06 -2.813706e-05)) ((5.135834e-08 -1.378031e-06 -3.176914e-06) (-4.609248e-09 4.310750e-08 1.579911e-06))
105           	((-7.196231e-04 -3.185988e-06 -1.808796e-04) (5.674189e-03 -4.831599e-06 -2.806719e-05)) ((5.175093e-08 -1.348942e-06 -3.149194e-06) (-4.515548e-09 4.209498e-08 1.576749e-06))
106           	((-7.013128e-04 -2.919341e-06 -1.826502e-04) (5.639489e-03 -4.446648e-06 -2.800690e-05)) ((5.212744e-08 -1.320077e-06 -3.121790e-06) (-4.419341e-09 4.119832e-08 1.573772e-06))
107           	((-6.832895e-04 -2.666575e-06 -1.843526e-04) (5.605512e-03 -4.062965e-06 -2.795572e-05)) ((5.248866e-08 -1.291585e-06 -3.094810e-06) (-4.320901e-09 4.041749e-08 1.570979e-06))
108           	((-6.655472e-04 -2.404597e-06 -1.859914e-04) (5.572236e-03 -3.680545e-06 -2.791366e-05)) ((5.283227e-08 -1.263518e-06 -3.068467e-06) (-4.220271e-09 3.974842e-08 1.568366e-06))
109           	((-6.480745e-04 -2.140806e-06 -1.876279e-04) (5.539645e-03 -3.299481e-06 -2.788390e-05)) ((5.317049e-08 -1.236508e-06 -3.042660e-06) (-4.116521e-09 3.915344e-08 1.565933e-06))
110           	((-6.308655e-04 -1.885834e-06 -1.891927e-04) (5.507719e-03 -2.919688e-06 -2.786559e-05)) ((5.348519e-08 -1.209841e-06 -3.017252e-06) (-4.009904e-09 3.863704e-08 1.563675e-06))
111           	((-6.139134e-04 -1.624816e-06 -1.906762e-04) (5.476439e-03 -2.541142e-06 -2.785634e-05)) ((5.377278e-08 -1.183422e-06 -2.992354e-06) (-3.901120e-09 3.821928e-08 1.561589e-06))
112           	((-5.972110e-04 -1.341770e-06 -1.920956e-04) (5.445789e-03 -2.164009e-06 -2.785549e-05)) ((5.403646e-08 -1.157436e-06 -2.968084e-06) (-3.790347e-09 3.790125e-08 1.559672e-06))
113           	((-5.807523e-04 -1.016136e-06 -1.934587e-04) (5.415752e-03 -1.788537e-06 -2.786269e-05)) ((5.427614e-08 -1.131980e-06 -2.944633e-06) (-3.677668e-09 3.768106e-08 1.557922e-06))
114           	((-5.645258e-04 -6.562054e-07 -1.948283e-04) (5.386313e-03 -1.414983e-06 -2.788073e-05)) ((5.450544e-08 -1.107711e-06 -2.921797e-06) (-3.562217e-09 3.752412e-08 1.556338e-06))
115           	((-5.485256e-04 -2.805502e-07 -1.961335e-04) (5.357457e-03 -1.043423e-06 -2.790832e-05)) ((5.470851e-08 -1.083912e-06 -2.899374e-06) (-3.444266e-09 3.743704e-08 1.554912e-06))
116           	((-5.327455e-04 1.045244e-07 -1.973620e-04) (5.329167e-03 -6.737628e-07 -2.794269e-05)) ((5.488523e-08 -1.060446e-06 -2.877470e-06) (-3.324515e-09 3.744162e-08 1.553640e-06))
117           	((-5.171785e-04 5.123088e-07 -1.985249e-04) (5.301430e-03 -3.059953e-07 -2.798292e-05)) ((5.503882e-08 -1.037471e-06 -2.856076e-06) (-3.203148e-09 3.753958e-08 1.552519e-06))
118           	((-5.018227e-04 9.533943e-07 -1.996249e-04) (5.274232e-03 5.974861e-08 -2.802846e-05)) ((5.517044e-08 -1.015025e-06 -2.835295e-06) (-3.080198e-09 3.772935e-08 1.551544e-06))
119           	((-4.866734e-04 1.395467e-06 -2.007193e-04) (5.247560e-03 4.235137e-07 -2.808200e-05)) ((5.529663e-08 -9.937195e-07 -2.814968e-06) (-2.954739e-09 3.797493e-08 1.550711e-06))
120           	((-4.717599e-04 1.825797e-06 -2.017390e-04) (5.221404e-03 7.855158e-07 -2.814223e-05)) ((5.540311e-08 -9.727158e-07 -2.794791e-06) (-2.827054e-09 3.827865e-08 1.550016e-06))
121           	((-4.570265e-04 2.238300e-06 -2.026638e-04) (5.195751e-03 1.145919e-06 -2.820635e-05)) ((5.548601e-08 -9.520270e-07 -2.774737e-06) (-2.697873e-09 3.865455e-08 1.549450e-06))
122           	((-4.424798e-04 2.638123e-06 -2.035091e-04) (5.170584e-03 1.504957e-06 -2.827412e-05)) ((5.555067e-08 -9.318017e-07 -2.754905e-06) (-2.567123e-09 3.910856e-08 1.549007e-06))
123           	((-4.281194e-04 3.027086e-06 -2.042810e-04) (5.145891e-03 1.862798e-06 -2.834537e-05)) ((5.559907e-08 -9.121432e-07 -2.735722e-06) (-2.434759e-09 3.963542e-08 1.548686e-06))
124           	((-4.139579e-04 3.425624e-06 -2.050502e-04) (5.121662e-03 2.219306e-06 -2.842304e-05)) ((5.564663e-08 -8.935947e-07 -2.716430e-06) (-2.299849e-09 4.019515e-08 1.548481e-06))
125           	((-3.999684e-04 3.811426e-06 -2.057451e-04) (5.097885e-03 2.574257e-06 -2.850596e-05)) ((5.567580e-08 -8.755308e-07 -2.696994e-06) (-2.162728e-09 4.078658e-08 1.548383e-06))
126           	((-3.861548e-04 4.202009e-06 -2.063589e-04) (5.074548e-03 2.927573e-06 -2.859165e-05)) ((5.568439e-08 -8.578340e-07 -2.677345e-06) (-2.024077e-09 4.142785e-08 1.548382e-06))
127           	((-3.725255e-04 4.614345e-06 -2.069247e-04) (5.051641e-03 3.279067e-06 -2.867931e-05)) ((5.568489e-08 -8.404429e-07 -2.657488e-06) (-1.884182e-09 4.211365e-08 1.548475e-06))
128           	((-3.591217e-04 5.043194e-06 -2.074349e-04) (5.029158e-03 3.628590e-06 -2.876852e-05)) ((5.567158e-08 -8.236976e-07 -2.638157e-06) (-1.743232e-09 4.283742e-08 1.548660e-06))
129           	((-3.459345e-04 5.456458e-06 -2.079507e-04) (5.007094e-03 3.976268e-06 -2.886215e-05)) ((5.566054e-08 -8.082344e-07 -2.619479e-06) (-1.600397e-09 4.356052e-08 1.548948e-06))
130           	((-3.329130e-04 5.817497e-06 -2.084027e-04) (4.985442e-03 4.322704e-06 -2.895915e-05)) ((5.563778e-08 -7.932658e-07 -2.601109e-06) (-1.456038e-09 4.428693e-08 1.549338e-06))
131           	((-3.200568e-04 6.199360e-06 -2.087748e-04) (4.964185e-03 4.667713e-06 -2.905714e-05)) ((5.559032e-08 -7.787337e-07 -2.582606e-06) (-1.310854e-09 4.503712e-08 1.549822e-06))
132           	((-3.073377e-04 6.595202e-06 -2.090824e-04) (4.943311e-03 5.010768e-06 -2.915584e-05)) ((5.552519e-08 -7.647366e-07 -2.564146e-06) (-1.165007e-09 4.581489e-08 1.550392e-06))
133           	((-2.948269e-04 6.926187e-06 -2.093285e-04) (4.922811e-03 5.352774e-06 -2.925529e-05)) ((5.545248e-08 -7.513275e-07 -2.546856e-06) (-1.018673e-09 4.661886e-08 1.551055e-06))
134           	((-2.823853e-04 7.360627e-06 -2.095811e-04) (4.902675e-03 5.692993e-06 -2.935838e-05)) ((5.536700e-08 -7.390043e-07 -2.528419e-06) (-8.711504e-10 4.740743e-08 1.551801e-06))
135           	((-2.701686e-04 7.752788e-06 -2.097647e-04) (4.882894e-03 6.030885e-06 -2.946457e-05)) ((5.526507e-08 -7.270918e-07 -2.510160e-06) (-7.227930e-10 4.819059e-08 1.552616e-06))
136           	((-2.580481e-04 8.158040e-06 -2.098712e-04) (4.863464e-03 6.366983e-06 -2.957107e-05)) ((5.514061e-08 -7.154292e-07 -2.491449e-06) (-5.745964e-10 4.898027e-08 1.553502e-06))
137           	((-2.461509e-04 8.504289e-06 -2.099076e-04) (4.844376e-03 6.701745e-06 -2.967786e-05)) ((5.500285e-08 -7.043416e-07 -2.473627e-06) (-4.267977e-10 4.978405e-08 1.554462e-06))
138           	((-2.343460e-04 8.930936e-06 -2.098930e-04) (4.825623e-03 7.034743e-06 -2.978469e-05)) ((5.484269e-08 -6.936831e-07 -2.455131e-06) (-2.796291e-10 5.059551e-08 1.555492e-06))
139           	((-2.227046e-04 9.331446e-06 -2.098820e-04) (4.807197e-03 7.365507e-06 -2.989489e-05)) ((5.468146e-08 -6.842517e-07 -2.436930e-06) (-1.322903e-10 5.138095e-08 1.556585e-06))
140           	((-2.112302e-04 9.686075e-06 -2.098040e-04) (4.789095e-03 7.694829e-06 -3.000757e-05)) ((5.450318e-08 -6.753523e-07 -2.418945e-06) (1.482080e-11 5.214598e-08 1.557745e-06))
141           	((-1.998993e-04 1.002484e-05 -2.096568e-04) (4.771311e-03 8.022885e-06 -3.012032e-05)) ((5.430636e-08 -6.667354e-07 -2.400936e-06) (1.608807e-10 5.291073e-08 1.558974e-06))
142           	((-1.887011e-04 1.034617e-05 -2.094597e-04) (4.753839e-03 8.349660e-06 -3.023263e-05)) ((5.409822e-08 -6.584891e-07 -2.383009e-06) (3.056676e-10 5.367541e-08 1.560267e-06))
143           	((-1.776146e-04 1.066817e-05 -2.092217e-04) (4.736669e-03 8.675187e-06 -3.034436e-05)) ((5.388037e-08 -6.506284e-07 -2.365266e-06) (4.491455e-10 5.443755e-08 1.561624e-06))
144           	((-1.666651e-04 1.096614e-05 -2.089986e-04) (4.719796e-03 8.999515e-06 -3.045871e-05)) ((5.366601e-08 -6.438288e-07 -2.347672e-06) (5.922690e-10 5.516448e-08 1.563044e-06))
145           	((-1.558470e-04 1.122473e-05 -2.087194e-04) (4.703214e-03 9.322824e-06 -3.057462e-05)) ((5.343839e-08 -6.373320e-07 -2.330029e-06) (7.347558e-10 5.586007e-08 1.564524e-06))
146           	((-1.451547e-04 1.145149e-05 -2.083719e-04) (4.686915e-03 9.645226e-06 -3.068982e-05)) ((5.319498e-08 -6.309930e-07 -2.312431e-06) (8.760059e-10 5.654723e-08 1.566060e-06))
147           	((-1.345839e-04 1.165840e-05 -2.079708e-04) (4.670894e-03 9.966668e-06 -3.080399e-05)) ((5.293977e-08 -6.249295e-07 -2.294968e-06) (1.015983e-09 5.723069e-08 1.567653e-06))
148           	((-1.241404e-04 1.185250e-05 -2.075249e-04) (4.655146e-03 1.028709e-05 -3.091715e-05)) ((5.267666e-08 -6.191032e-07 -2.277872e-06) (1.154719e-09 5.791028e-08 1.569301e-06))
149           	((-1.138003e-04 1.205472e-05 -2.070903e-04) (4.639662e-03 1.060611e-05 -3.103255e-05)) ((5.241240e-08 -6.142531e-07 -2.260745e-06) (1.293116e-09 5.855214e-08 1.571002e-06))
150           	((-1.035761e-04 1.222165e-05 -2.065992e-04) (4.624438e-03 1.092364e-05 -3.114969e-05)) ((5.213665e-08 -6.095642e-07 -2.243609e-06) (1.431032e-09 5.916961e-08 1.572751e-06))
151           	((-9.346876e-05 1.235660e-05 -2.060402e-04) (4.609467e-03 1.123997e-05 -3.126635e-05)) ((5.184812e-08 -6.049073e-07 -2.226577e-06) (1.567672e-09 5.978503e-08 1.574549e-06))
152           	((-8.347911e-05 1.246683e-05 -2.054295e-04) (4.594746e-03 1.155523e-05 -3.138226e-05)) ((5.155183e-08 -6.004192e-07 -2.209758e-06) (1.702757e-09 6.040161e-08 1.576395e-06))
153           	((-7.362122e-05 1.255546e-05 -2.047760e-04) (4.580270e-03 1.186954e-05 -3.149743e-05)) ((5.125181e-08 -5.961092e-07 -2.193425e-06) (1.836060e-09 6.101718e-08 1.578291e-06))
154           	((-6.387136e-05 1.263092e-05 -2.041394e-04) (4.566037e-03 1.218278e-05 -3.161491e-05)) ((5.095769e-08 -5.927000e-07 -2.177252e-06) (1.968226e-09 6.159484e-08 1.580236e-06))
155           	((-5.422595e-05 1.268127e-05 -2.034510e-04) (4.552040e-03 1.249480e-05 -3.173397e-05)) ((5.065250e-08 -5.894806e-07 -2.161050e-06) (2.098930e-09 6.214409e-08 1.582225e-06))
156           	((-4.469356e-05 1.269692e-05 -2.027006e-04) (4.538272e-03 1.280569e-05 -3.185223e-05)) ((5.033601e-08 -5.863559e-07 -2.145112e-06) (2.227422e-09 6.268813e-08 1.584255e-06))