# Residuals   
# Time        	p             	Ux            	Uy            	Uz            
0             	N/A	N/A
1             	1.000000e+00	1.000000e+00	1.000000e+00	1.000000e+00
2             	2.880305e-02	5.119908e-01	4.025409e-01	4.159387e-01
3             	5.240873e-02	1.909473e-01	1.882690e-01	1.631241e-01
4             	7.543352e-02	9.018074e-02	1.424141e-01	5.275961e-01
5             	2.252938e-01	4.142001e-02	1.269085e-01	5.245260e-01
6             	1.157536e-01	6.001265e-02	1.326162e-01	3.796653e-01
7             	7.098049e-02	9.959357e-02	1.357719e-01	2.354887e-01
8             	5.949364e-02	1.190687e-01	1.301250e-01	1.376541e-01
9             	6.184128e-02	1.051260e-01	1.230150e-01	2.624640e-01
10            	8.164712e-02	6.127364e-02	1.037433e-01	4.010478e-01
11            	1.451751e-01	3.584426e-02	8.590389e-02	3.736911e-01
12            	7.182206e-02	4.743785e-02	7.444728e-02	2.719971e-01
13            	5.512305e-02	5.329293e-02	5.978537e-02	1.587031e-01
14            	5.204691e-02	4.443485e-02	4.496586e-02	9.208627e-02
15            	5.740557e-02	2.962628e-02	3.649319e-02	1.636278e-01
16            	7.347498e-02	1.686103e-02	3.007365e-02	2.052007e-01
17            	1.005338e-01	1.240733e-02	2.578724e-02	1.835853e-01
18            	7.892094e-02	1.522813e-02	2.265184e-02	1.303389e-01
19            	7.294924e-02	1.695345e-02	1.855885e-02	7.236034e-02
20            	7.565033e-02	1.451232e-02	1.506695e-02	5.762338e-02
21            	8.523839e-02	9.970821e-03	1.343040e-02	8.478960e-02
22            	9.537071e-02	8.230204e-03	1.304289e-02	9.396909e-02
23            	8.158265e-02	9.933855e-03	1.292713e-02	8.101285e-02
24            	7.452499e-02	1.105095e-02	1.191825e-02	5.715934e-02
25            	7.237282e-02	1.068533e-02	1.049057e-02	3.813620e-02
26            	7.375044e-02	9.368118e-03	9.490664e-03	4.070861e-02
27            	7.753218e-02	7.763361e-03	8.619646e-03	4.822000e-02
28            	8.220015e-02	6.400143e-03	7.637749e-03	4.827264e-02
29            	8.587293e-02	5.572845e-03	6.644654e-03	4.189245e-02
30            	8.722048e-02	5.146118e-03	5.789400e-03	3.369092e-02
31            	8.598984e-02	4.912737e-03	5.302923e-03	2.878957e-02
32            	8.295767e-02	4.945927e-03	5.282647e-03	2.925258e-02
33            	7.925113e-02	5.151062e-03	5.391201e-03	3.011485e-02
34            	7.580460e-02	5.340475e-03	5.406419e-03	2.894427e-02
35            	7.308194e-02	5.405567e-03	5.298990e-03	2.648152e-02
36            	7.119365e-02	5.316641e-03	5.118303e-03	2.438790e-02
37            	6.999194e-02	5.105955e-03	4.914260e-03	2.377786e-02
38            	6.922425e-02	4.835902e-03	4.701646e-03	2.381247e-02
39            	6.858890e-02	4.567898e-03	4.480933e-03	2.345077e-02
40            	6.782649e-02	4.341983e-03	4.269334e-03	2.255327e-02
41            	6.678315e-02	4.173410e-03	4.088349e-03	2.144085e-02
42            	6.543100e-02	4.059261e-03	3.949793e-03	2.047706e-02
43            	6.384588e-02	3.984891e-03	3.848985e-03	1.980763e-02
44            	6.214486e-02	3.931863e-03	3.768974e-03	1.928610e-02
45            	6.044786e-02	3.882268e-03	3.694560e-03	1.876524e-02
46            	5.883311e-02	3.823615e-03	3.616064e-03	1.822378e-02
47            	5.733564e-02	3.751369e-03	3.533534e-03	1.773249e-02
48            	5.595565e-02	3.667118e-03	3.447390e-03	1.728504e-02
49            	5.466836e-02	3.575925e-03	3.358703e-03	1.686361e-02
50            	5.343637e-02	3.485058e-03	3.272165e-03	1.644509e-02
51            	5.222755e-02	3.399838e-03	3.190101e-03	1.601665e-02
52            	5.101807e-02	3.323069e-03	3.113469e-03	1.558091e-02
53            	4.979881e-02	3.255016e-03	3.043582e-03	1.516151e-02
54            	4.857713e-02	3.194490e-03	2.979788e-03	1.476599e-02
55            	4.736515e-02	3.139292e-03	2.921080e-03	1.439927e-02
56            	4.617472e-02	3.087170e-03	2.865968e-03	1.405567e-02
57            	4.501815e-02	3.035817e-03	2.812194e-03	1.371773e-02
58            	4.390339e-02	2.985071e-03	2.761472e-03	1.340722e-02
59            	4.282857e-02	2.933753e-03	2.709541e-03	1.309526e-02
60            	4.179113e-02	2.883549e-03	2.660718e-03	1.280493e-02
61            	4.078679e-02	2.835081e-03	2.614638e-03	1.253523e-02
62            	3.981110e-02	2.787877e-03	2.568665e-03	1.225103e-02
63            	3.886227e-02	2.742934e-03	2.524991e-03	1.198097e-02
64            	3.793937e-02	2.700489e-03	2.484211e-03	1.173016e-02
65            	3.704197e-02	2.660047e-03	2.445095e-03	1.148935e-02
66            	3.616904e-02	2.621399e-03	2.407705e-03	1.125439e-02
67            	3.532298e-02	2.584396e-03	2.372169e-03	1.103159e-02
68            	3.450401e-02	2.548413e-03	2.337307e-03	1.081239e-02
69            	3.371412e-02	2.515911e-03	2.312200e-03	1.071141e-02
70            	3.294892e-02	2.480184e-03	2.273787e-03	1.042049e-02
71            	3.220937e-02	2.447146e-03	2.241967e-03	1.022025e-02
72            	3.149640e-02	2.415346e-03	2.212069e-03	1.003375e-02
73            	3.080740e-02	2.384511e-03	2.183285e-03	9.854375e-03
74            	3.014116e-02	2.354815e-03	2.155725e-03	9.682774e-03
75            	2.949870e-02	2.326230e-03	2.129699e-03	9.522885e-03
76            	2.887562e-02	2.298554e-03	2.104115e-03	9.362538e-03
77            	2.827291e-02	2.271734e-03	2.079297e-03	9.204622e-03
78            	2.769060e-02	2.245998e-03	2.056021e-03	9.058767e-03
79            	2.712783e-02	2.220945e-03	2.033036e-03	8.919009e-03
80            	2.658364e-02	2.196539e-03	2.010876e-03	8.779982e-03
81            	2.605696e-02	2.172993e-03	1.989587e-03	8.645333e-03
82            	2.554764e-02	2.149999e-03	1.968530e-03	8.511195e-03
83            	2.505508e-02	2.127626e-03	1.948356e-03	8.384440e-03
84            	2.458095e-02	2.106815e-03	1.931335e-03	8.292725e-03
85            	2.411906e-02	2.085499e-03	1.911787e-03	8.165896e-03
86            	2.367153e-02	2.064954e-03	1.892839e-03	8.040258e-03
87            	2.323819e-02	2.045093e-03	1.875133e-03	7.928316e-03
88            	2.281874e-02	2.025842e-03	1.857991e-03	7.821945e-03
89            	2.241165e-02	2.007156e-03	1.841652e-03	7.721622e-03
90            	2.201906e-02	1.989822e-03	1.827692e-03	7.639909e-03
91            	2.163604e-02	1.971469e-03	1.810475e-03	7.529626e-03
92            	2.126630e-02	1.954368e-03	1.796021e-03	7.442946e-03
93            	2.090624e-02	1.938209e-03	1.782804e-03	7.360970e-03
94            	2.055649e-02	1.921087e-03	1.766444e-03	7.253463e-03
95            	2.021906e-02	1.905117e-03	1.752925e-03	7.171608e-03
96            	1.989052e-02	1.889854e-03	1.739966e-03	7.092801e-03
97            	1.957114e-02	1.874661e-03	1.726758e-03	7.011596e-03
98            	1.926105e-02	1.859772e-03	1.713872e-03	6.930164e-03
99            	1.895880e-02	1.845359e-03	1.701435e-03	6.851283e-03
100           	1.866672e-02	1.831308e-03	1.689403e-03	6.780931e-03
101           	1.838132e-02	1.817514e-03	1.677597e-03	6.707830e-03
102           	1.810451e-02	1.804528e-03	1.667180e-03	6.644806e-03
103           	1.783387e-02	1.791157e-03	1.655248e-03	6.570523e-03
104           	1.757104e-02	1.778238e-03	1.644157e-03	6.500943e-03
105           	1.731712e-02	1.765985e-03	1.634368e-03	6.444874e-03
106           	1.706824e-02	1.753689e-03	1.623621e-03	6.378047e-03
107           	1.682747e-02	1.742165e-03	1.615035e-03	6.334635e-03
108           	1.659089e-02	1.730492e-03	1.605229e-03	6.270936e-03
109           	1.635999e-02	1.718690e-03	1.594225e-03	6.201661e-03
110           	1.613671e-02	1.707516e-03	1.585258e-03	6.149421e-03
111           	1.591721e-02	1.696464e-03	1.575878e-03	6.089923e-03
112           	1.570423e-02	1.685668e-03	1.566668e-03	6.030968e-03
113           	1.549888e-02	1.676803e-03	1.562797e-03	6.040246e-03
114           	1.529459e-02	1.665328e-03	1.551185e-03	5.949788e-03
115           	1.509663e-02	1.654942e-03	1.541608e-03	5.885410e-03
116           	1.490309e-02	1.644965e-03	1.533051e-03	5.833408e-03
117           	1.471357e-02	1.635090e-03	1.524644e-03	5.780741e-03
118           	1.452887e-02	1.627250e-03	1.520752e-03	5.766118e-03
119           	1.434872e-02	1.616519e-03	1.509514e-03	5.694680e-03
120           	1.417262e-02	1.607178e-03	1.501915e-03	5.648961e-03
121           	1.399991e-02	1.598194e-03	1.494504e-03	5.604562e-03
122           	1.383127e-02	1.589226e-03	1.486913e-03	5.555708e-03
123           	1.366677e-02	1.580747e-03	1.480663e-03	5.522920e-03
124           	1.350451e-02	1.572053e-03	1.473163e-03	5.478249e-03
125           	1.334693e-02	1.563585e-03	1.466019e-03	5.436509e-03
126           	1.319295e-02	1.557269e-03	1.463468e-03	5.427629e-03
127           	1.304181e-02	1.547561e-03	1.452817e-03	5.361374e-03
128           	1.289451e-02	1.539622e-03	1.447318e-03	5.334355e-03
129           	1.274902e-02	1.531534e-03	1.440285e-03	5.288597e-03
130           	1.260687e-02	1.523714e-03	1.433645e-03	5.248698e-03
131           	1.246779e-02	1.516106e-03	1.427284e-03	5.212165e-03
132           	1.233176e-02	1.508539e-03	1.420942e-03	5.174812e-03
133           	1.219778e-02	1.501170e-03	1.415069e-03	5.142966e-03
134           	1.206628e-02	1.493921e-03	1.409110e-03	5.108588e-03
135           	1.193897e-02	1.487552e-03	1.404839e-03	5.087920e-03
136           	1.181375e-02	1.479880e-03	1.397792e-03	5.047477e-03
137           	1.168978e-02	1.472724e-03	1.391707e-03	5.012751e-03
138           	1.157027e-02	1.466373e-03	1.387913e-03	4.996795e-03
139           	1.145169e-02	1.459455e-03	1.381665e-03	4.962432e-03
140           	1.133505e-02	1.452682e-03	1.375753e-03	4.929277e-03
141           	1.121965e-02	1.446102e-03	1.370277e-03	4.899619e-03
142           	1.110715e-02	1.439483e-03	1.364482e-03	4.865053e-03
143           	1.099762e-02	1.433526e-03	1.360723e-03	4.855057e-03
144           	1.088926e-02	1.430918e-03	1.363155e-03	4.881160e-03
145           	1.078541e-02	1.421709e-03	1.351899e-03	4.817860e-03
146           	1.067932e-02	1.414716e-03	1.345020e-03	4.772167e-03
147           	1.057580e-02	1.408710e-03	1.339692e-03	4.740468e-03
148           	1.047490e-02	1.402379e-03	1.333978e-03	4.708507e-03
149           	1.037541e-02	1.396345e-03	1.329174e-03	4.683918e-03
150           	1.027870e-02	1.393434e-03	1.329785e-03	4.699235e-03
151           	1.018195e-02	1.384891e-03	1.319552e-03	4.636201e-03
152           	1.008837e-02	1.379154e-03	1.315253e-03	4.616140e-03
153           	9.995383e-03	1.373781e-03	1.310946e-03	4.595189e-03
154           	9.903456e-03	1.367735e-03	1.305172e-03	4.561683e-03
155           	9.814848e-03	1.362117e-03	1.300710e-03	4.540939e-03
156           	9.727915e-03	1.356879e-03	1.296684e-03	4.522311e-03
157           	9.641937e-03	1.351916e-03	1.293495e-03	4.515845e-03
158           	9.555353e-03	1.346002e-03	1.287762e-03	4.477880e-03
159           	9.470057e-03	1.340543e-03	1.282779e-03	4.450672e-03
160           	9.389077e-03	1.335400e-03	1.278467e-03	4.434862e-03
161           	9.308882e-03	1.330354e-03	1.274848e-03	4.418431e-03
162           	9.228064e-03	1.324965e-03	1.269621e-03	4.389645e-03
163           	9.148644e-03	1.319738e-03	1.264937e-03	4.367370e-03
164           	9.071757e-03	1.314777e-03	1.261123e-03	4.351346e-03
165           	8.995368e-03	1.309758e-03	1.256650e-03	4.331320e-03
166           	8.920316e-03	1.305163e-03	1.253597e-03	4.322296e-03
167           	8.847228e-03	1.302637e-03	1.254854e-03	4.358126e-03
168           	8.773890e-03	1.340099e-03	1.343949e-03	4.860204e-03
169           	8.703480e-03	1.290621e-03	1.240369e-03	4.262660e-03
170           	8.633214e-03	1.285400e-03	1.235817e-03	4.235805e-03
171           	8.562838e-03	1.280675e-03	1.231876e-03	4.217189e-03
172           	8.494421e-03	1.275944e-03	1.227607e-03	4.197733e-03
173           	8.425338e-03	1.271040e-03	1.223244e-03	4.175078e-03
174           	8.358120e-03	1.266433e-03	1.219453e-03	4.157661e-03
175           	8.297603e-03	1.263052e-03	1.218240e-03	4.161879e-03
176           	8.232409e-03	1.257930e-03	1.212872e-03	4.137193e-03
177           	8.166486e-03	1.252834e-03	1.207905e-03	4.109037e-03
178           	8.101452e-03	1.248151e-03	1.203425e-03	4.085323e-03
179           	8.038262e-03	1.243645e-03	1.199318e-03	4.068228e-03
180           	7.977634e-03	1.239216e-03	1.195648e-03	4.054313e-03
181           	7.917434e-03	1.235559e-03	1.193645e-03	4.058992e-03
182           	7.856780e-03	1.230619e-03	1.188493e-03	4.023756e-03
183           	7.797554e-03	1.226007e-03	1.183936e-03	4.000942e-03
184           	7.739080e-03	1.221998e-03	1.180750e-03	3.992517e-03
185           	7.681885e-03	1.217604e-03	1.176669e-03	3.976636e-03
186           	7.625205e-03	1.213156e-03	1.172601e-03	3.955292e-03
187           	7.568899e-03	1.209074e-03	1.169129e-03	3.942744e-03
188           	7.512909e-03	1.204703e-03	1.165082e-03	3.923782e-03
189           	7.458147e-03	1.200856e-03	1.162040e-03	3.912481e-03
190           	7.404759e-03	1.196450e-03	1.157419e-03	3.893392e-03
191           	7.351270e-03	1.192093e-03	1.153411e-03	3.874682e-03
192           	7.299217e-03	1.188336e-03	1.150512e-03	3.865860e-03
193           	7.247333e-03	1.184048e-03	1.146439e-03	3.849420e-03
194           	7.195412e-03	1.179833e-03	1.142368e-03	3.828680e-03
195           	7.145646e-03	1.175986e-03	1.139111e-03	3.818291e-03
196           	7.096224e-03	1.171938e-03	1.135412e-03	3.804054e-03
197           	7.050119e-03	1.168634e-03	1.133950e-03	3.810338e-03
198           	7.000020e-03	1.164609e-03	1.129987e-03	3.786747e-03
199           	6.950593e-03	1.160043e-03	1.124431e-03	3.759154e-03
200           	6.903693e-03	1.156032e-03	1.120943e-03	3.746690e-03
201           	6.857160e-03	1.152626e-03	1.118494e-03	3.739614e-03
202           	6.810985e-03	1.148453e-03	1.113821e-03	3.716998e-03
203           	6.765086e-03	1.144272e-03	1.110049e-03	3.701266e-03
204           	6.720010e-03	1.140471e-03	1.106597e-03	3.688546e-03
205           	6.676554e-03	1.136734e-03	1.103370e-03	3.679036e-03
206           	6.632796e-03	1.133163e-03	1.100350e-03	3.669765e-03
207           	6.588253e-03	1.129153e-03	1.096269e-03	3.648663e-03
208           	6.545059e-03	1.126839e-03	1.095800e-03	3.653771e-03
209           	6.502322e-03	1.121738e-03	1.089071e-03	3.622741e-03
210           	6.461092e-03	1.117798e-03	1.085441e-03	3.607714e-03
211           	6.420401e-03	1.114846e-03	1.083838e-03	3.612423e-03
212           	6.380502e-03	1.110921e-03	1.079922e-03	3.592818e-03
213           	6.339408e-03	1.106923e-03	1.075667e-03	3.573118e-03
214           	6.298435e-03	1.103276e-03	1.072165e-03	3.557345e-03
215           	6.259883e-03	1.099641e-03	1.068734e-03	3.545900e-03
216           	6.220614e-03	1.096023e-03	1.065474e-03	3.534389e-03
217           	6.181297e-03	1.092637e-03	1.062481e-03	3.523845e-03
218           	6.143577e-03	1.088931e-03	1.058637e-03	3.507532e-03
219           	6.105821e-03	1.085470e-03	1.055966e-03	3.501599e-03
220           	6.069042e-03	1.082277e-03	1.053108e-03	3.492967e-03
221           	6.031264e-03	1.078319e-03	1.048716e-03	3.472908e-03
222           	5.994307e-03	1.074555e-03	1.045057e-03	3.454075e-03
223           	5.957714e-03	1.071166e-03	1.041818e-03	3.443053e-03
224           	5.923911e-03	1.068394e-03	1.040265e-03	3.450394e-03
225           	5.892289e-03	1.064873e-03	1.037132e-03	3.439265e-03
226           	5.855367e-03	1.061642e-03	1.033739e-03	3.420611e-03
227           	5.820558e-03	1.057606e-03	1.029140e-03	3.399202e-03
228           	5.786274e-03	1.053930e-03	1.025642e-03	3.386017e-03
229           	5.751972e-03	1.050940e-03	1.023212e-03	3.381108e-03
230           	5.718960e-03	1.047432e-03	1.019535e-03	3.367654e-03
231           	5.685050e-03	1.043848e-03	1.016017e-03	3.352534e-03
232           	5.653545e-03	1.041216e-03	1.014582e-03	3.356155e-03
233           	5.620154e-03	1.037423e-03	1.010397e-03	3.335847e-03
234           	5.587247e-03	1.033852e-03	1.006503e-03	3.316799e-03
235           	5.557207e-03	1.030899e-03	1.004207e-03	3.313016e-03
236           	5.525878e-03	1.027603e-03	1.000832e-03	3.301971e-03
237           	5.493815e-03	1.024178e-03	9.974215e-04	3.288296e-03
238           	5.462397e-03	1.021026e-03	9.946184e-04	3.277910e-03
239           	5.431462e-03	1.017650e-03	9.908876e-04	3.263199e-03
240           	5.402388e-03	1.014405e-03	9.879987e-04	3.255131e-03
241           	5.372157e-03	1.011322e-03	9.851514e-04	3.246551e-03
242           	5.343040e-03	1.008395e-03	9.825539e-04	3.239744e-03
243           	5.313052e-03	1.004927e-03	9.789973e-04	3.223929e-03
244           	5.285222e-03	1.002186e-03	9.766983e-04	3.218797e-03
245           	5.257407e-03	9.989907e-04	9.736594e-04	3.212015e-03
246           	5.228072e-03	9.956443e-04	9.700427e-04	3.194861e-03
247           	5.200171e-03	9.930657e-04	9.683732e-04	3.196861e-03
248           	5.171503e-03	9.895680e-04	9.645544e-04	3.177920e-03
249           	5.142815e-03	9.863140e-04	9.610699e-04	3.162818e-03
250           	5.118152e-03	9.841043e-04	9.598222e-04	3.168878e-03
251           	5.089575e-03	9.805246e-04	9.556947e-04	3.151003e-03
252           	5.062785e-03	9.773589e-04	9.523963e-04	3.136369e-03
253           	5.036143e-03	9.753101e-04	9.513340e-04	3.138998e-03
254           	5.008461e-03	9.712850e-04	9.462716e-04	3.113452e-03
255           	4.983340e-03	9.682443e-04	9.436586e-04	3.107249e-03
256           	4.957325e-03	9.655584e-04	9.411837e-04	3.100974e-03
257           	4.932413e-03	9.627113e-04	9.385972e-04	3.095033e-03
258           	4.905608e-03	9.594218e-04	9.350697e-04	3.078298e-03
259           	4.879821e-03	9.565603e-04	9.323468e-04	3.067579e-03
260           	4.856075e-03	9.536731e-04	9.294065e-04	3.061484e-03
261           	4.830783e-03	9.505832e-04	9.263683e-04	3.051157e-03
262           	4.807778e-03	9.489876e-04	9.265940e-04	3.068546e-03
263           	4.782558e-03	9.451589e-04	9.217417e-04	3.038200e-03
264           	4.757955e-03	9.420236e-04	9.181411e-04	3.022955e-03
265           	4.736049e-03	9.397073e-04	9.167749e-04	3.025202e-03
266           	4.713240e-03	9.367273e-04	9.132658e-04	3.011322e-03
267           	4.688251e-03	9.337047e-04	9.101176e-04	3.000586e-03
268           	4.665630e-03	9.309646e-04	9.077110e-04	2.994388e-03
269           	4.642567e-03	9.282886e-04	9.057862e-04	2.990349e-03
270           	4.619975e-03	9.253514e-04	9.022179e-04	2.975360e-03
271           	4.596995e-03	9.225961e-04	8.992623e-04	2.964641e-03
272           	4.574615e-03	9.199595e-04	8.967059e-04	2.958696e-03
273           	4.552744e-03	9.170491e-04	8.941029e-04	2.950310e-03
274           	4.529955e-03	9.144243e-04	8.911940e-04	2.938152e-03
275           	4.509237e-03	9.117003e-04	8.885690e-04	2.933229e-03
276           	4.487686e-03	9.089641e-04	8.860826e-04	2.926030e-03
277           	4.467138e-03	9.073136e-04	8.855025e-04	2.937356e-03
278           	4.445227e-03	9.038760e-04	8.813824e-04	2.912598e-03
279           	4.423512e-03	9.008884e-04	8.780046e-04	2.898546e-03
280           	4.403920e-03	8.987194e-04	8.764671e-04	2.899234e-03
281           	4.382325e-03	8.959668e-04	8.734690e-04	2.890706e-03
282           	4.360926e-03	8.929761e-04	8.701693e-04	2.874011e-03
283           	4.341472e-03	8.913662e-04	8.698222e-04	2.882252e-03
284           	4.323140e-03	8.884439e-04	8.665527e-04	2.871587e-03
285           	4.302973e-03	8.854900e-04	8.630817e-04	2.858351e-03
286           	4.282168e-03	8.831582e-04	8.613828e-04	2.858043e-03
287           	4.262225e-03	8.803766e-04	8.582641e-04	2.842703e-03
288           	4.242782e-03	8.776418e-04	8.555996e-04	2.831424e-03
289           	4.223006e-03	8.750785e-04	8.528583e-04	2.825091e-03
290           	4.203942e-03	8.725840e-04	8.503831e-04	2.818416e-03
291           	4.184895e-03	8.710569e-04	8.498957e-04	2.825510e-03
292           	4.165612e-03	8.679246e-04	8.460304e-04	2.808772e-03
293           	4.146089e-03	8.650683e-04	8.430460e-04	2.796286e-03
294           	4.128253e-03	8.628676e-04	8.411888e-04	2.792160e-03
295           	4.110203e-03	8.604851e-04	8.387218e-04	2.788576e-03
296           	4.092033e-03	8.582559e-04	8.371005e-04	2.788805e-03
297           	4.073455e-03	8.611944e-04	8.435887e-04	2.842705e-03
298           	4.054454e-03	8.532060e-04	8.316392e-04	2.766460e-03
299           	4.036253e-03	8.505252e-04	8.290720e-04	2.757358e-03
300           	4.018975e-03	8.483139e-04	8.269647e-04	2.754471e-03
301           	4.001431e-03	8.461028e-04	8.250081e-04	2.752996e-03
302           	3.982788e-03	8.434723e-04	8.223277e-04	2.739286e-03
303           	3.964874e-03	8.413244e-04	8.202304e-04	2.732771e-03
304           	3.947913e-03	8.388065e-04	8.175904e-04	2.726514e-03
305           	3.932657e-03	8.365895e-04	8.157554e-04	2.726519e-03
306           	3.916211e-03	8.352277e-04	8.156854e-04	2.740410e-03
307           	3.898344e-03	8.321676e-04	8.116855e-04	2.715196e-03
308           	3.881337e-03	8.295020e-04	8.088852e-04	2.703755e-03
309           	3.864534e-03	8.276169e-04	8.076598e-04	2.704135e-03
310           	3.847737e-03	8.252804e-04	8.048610e-04	2.697412e-03
311           	3.832900e-03	8.264190e-04	8.096615e-04	2.757829e-03
312           	3.816427e-03	8.209096e-04	8.009518e-04	2.694052e-03
313           	3.800776e-03	8.183555e-04	7.981629e-04	2.680436e-03
314           	3.784099e-03	8.163597e-04	7.963262e-04	2.674078e-03
315           	3.769486e-03	8.143784e-04	7.948124e-04	2.679163e-03
316           	3.752960e-03	8.118906e-04	7.923531e-04	2.666037e-03
317           	3.737399e-03	8.115899e-04	7.968833e-04	2.685589e-03
318           	3.720720e-03	8.076480e-04	7.878371e-04	2.653712e-03
319           	3.705106e-03	8.049893e-04	7.849554e-04	2.641620e-03
320           	3.690976e-03	8.033661e-04	7.837715e-04	2.645584e-03
321           	3.675312e-03	8.009428e-04	7.814576e-04	2.639203e-03
322           	3.659438e-03	7.985489e-04	7.788037e-04	2.624681e-03
323           	3.644319e-03	7.964467e-04	7.771770e-04	2.622517e-03
324           	3.629645e-03	7.989913e-04	7.825056e-04	2.663545e-03
325           	3.616460e-03	7.929074e-04	7.741535e-04	2.626453e-03
326           	3.600366e-03	7.903123e-04	7.713748e-04	2.612526e-03
327           	3.585473e-03	7.885386e-04	7.697489e-04	2.606538e-03
328           	3.571168e-03	7.861773e-04	7.671695e-04	2.600327e-03
329           	3.556117e-03	7.838589e-04	7.648602e-04	2.593995e-03
330           	3.543128e-03	7.825464e-04	7.645662e-04	2.603991e-03
331           	3.528449e-03	7.800494e-04	7.616920e-04	2.590714e-03
332           	3.513703e-03	7.777381e-04	7.591222e-04	2.578668e-03
333           	3.499621e-03	7.758654e-04	7.577592e-04	2.577817e-03
334           	3.485780e-03	7.737766e-04	7.553854e-04	2.570446e-03
335           	3.472320e-03	7.717990e-04	7.537123e-04	2.569945e-03
336           	3.458955e-03	7.700485e-04	7.524081e-04	2.569682e-03
337           	3.444972e-03	7.678375e-04	7.497899e-04	2.559143e-03
338           	3.431786e-03	7.656821e-04	7.478123e-04	2.552191e-03
339           	3.417821e-03	7.638671e-04	7.462087e-04	2.550496e-03
340           	3.406308e-03	7.623742e-04	7.452657e-04	2.557620e-03
341           	3.392378e-03	7.601301e-04	7.429596e-04	2.548640e-03
342           	3.378701e-03	7.583373e-04	7.412117e-04	2.539601e-03
343           	3.365811e-03	7.561877e-04	7.390455e-04	2.534481e-03
344           	3.352874e-03	7.541636e-04	7.371404e-04	2.530258e-03
345           	3.341523e-03	7.530874e-04	7.372096e-04	2.546457e-03
346           	3.328140e-03	7.507301e-04	7.344185e-04	2.530486e-03
347           	3.314862e-03	7.485426e-04	7.319200e-04	2.517338e-03
348           	3.303279e-03	7.468429e-04	7.305937e-04	2.517049e-03
349           	3.292720e-03	7.459848e-04	7.306644e-04	2.534825e-03
350           	3.279717e-03	7.433692e-04	7.276935e-04	2.520351e-03
351           	3.267972e-03	7.426775e-04	7.276013e-04	2.524206e-03
352           	3.255765e-03	7.395687e-04	7.235537e-04	2.504055e-03
353           	3.246588e-03	7.401505e-04	7.284173e-04	2.566599e-03
354           	3.234811e-03	7.394457e-04	7.366375e-04	2.684005e-03
355           	3.222349e-03	7.345107e-04	7.196456e-04	2.507610e-03
356           	3.211050e-03	7.324925e-04	7.178690e-04	2.498798e-03
357           	3.199816e-03	7.306271e-04	7.155543e-04	2.490102e-03
358           	3.187407e-03	7.286516e-04	7.136714e-04	2.484481e-03
359           	3.175655e-03	7.284602e-04	7.151381e-04	2.506176e-03
360           	3.164933e-03	7.254028e-04	7.108639e-04	2.483037e-03
361           	3.152854e-03	7.234148e-04	7.090837e-04	2.477769e-03
362           	3.140751e-03	7.217261e-04	7.073850e-04	2.471028e-03
363           	3.130492e-03	7.204207e-04	7.069173e-04	2.479707e-03
364           	3.119326e-03	7.184162e-04	7.048842e-04	2.471362e-03
365           	3.108073e-03	7.167637e-04	7.031987e-04	2.468206e-03
366           	3.098546e-03	7.153826e-04	7.021348e-04	2.470299e-03
367           	3.088775e-03	7.135887e-04	7.003350e-04	2.467963e-03
368           	3.077387e-03	7.120296e-04	6.992196e-04	2.466140e-03
369           	3.065551e-03	7.100746e-04	6.970914e-04	2.458486e-03
370           	3.055261e-03	7.082519e-04	6.953409e-04	2.451327e-03
371           	3.044505e-03	7.068291e-04	6.942470e-04	2.451301e-03
372           	3.033688e-03	7.050485e-04	6.924374e-04	2.446345e-03
373           	3.024827e-03	7.039029e-04	6.925142e-04	2.459595e-03
374           	3.013983e-03	7.018558e-04	6.902548e-04	2.446472e-03
375           	3.003474e-03	7.000948e-04	6.882039e-04	2.439255e-03
376           	2.993534e-03	6.986175e-04	6.871197e-04	2.439637e-03
377           	2.983093e-03	6.969146e-04	6.851867e-04	2.434210e-03
378           	2.972439e-03	6.951788e-04	6.837424e-04	2.430613e-03
379           	2.962573e-03	6.941579e-04	6.833048e-04	2.435114e-03
380           	2.953605e-03	6.922283e-04	6.811560e-04	2.429876e-03
381           	2.943468e-03	6.904504e-04	6.796596e-04	2.426751e-03
382           	2.933725e-03	6.889633e-04	6.783062e-04	2.422144e-03
383           	2.925009e-03	6.877931e-04	6.779115e-04	2.430092e-03
384           	2.915153e-03	6.859868e-04	6.761545e-04	2.424309e-03
385           	2.905566e-03	6.845333e-04	6.748257e-04	2.422239e-03
386           	2.896134e-03	6.828703e-04	6.730729e-04	2.416979e-03
387           	2.886270e-03	6.811125e-04	6.714313e-04	2.410404e-03
388           	2.878149e-03	6.803719e-04	6.718999e-04	2.425913e-03
389           	2.867972e-03	6.783991e-04	6.696443e-04	2.416023e-03
390           	2.859702e-03	6.767001e-04	6.678674e-04	2.408741e-03
391           	2.851112e-03	6.754136e-04	6.669397e-04	2.409910e-03
392           	2.841806e-03	6.738205e-04	6.653263e-04	2.405937e-03
393           	2.833007e-03	6.722686e-04	6.642762e-04	2.407000e-03
394           	2.824353e-03	6.923164e-04	6.974182e-04	2.625960e-03
395           	2.816361e-03	6.695639e-04	6.616618e-04	2.404262e-03
396           	2.811271e-03	6.744998e-04	6.769465e-04	2.573020e-03
397           	2.801455e-03	6.670585e-04	6.614852e-04	2.412822e-03
398           	2.792020e-03	6.648689e-04	6.583340e-04	2.398052e-03
399           	2.783099e-03	6.637014e-04	6.573294e-04	2.399337e-03
400           	2.777031e-03	6.622425e-04	6.557512e-04	2.398776e-03
401           	2.768268e-03	6.606013e-04	6.544222e-04	2.397817e-03
402           	2.759676e-03	6.590548e-04	6.529509e-04	2.390464e-03
403           	2.751533e-03	6.575684e-04	6.519029e-04	2.389494e-03
404           	2.742976e-03	6.562077e-04	6.507191e-04	2.389197e-03
405           	2.734713e-03	6.548370e-04	6.495670e-04	2.389993e-03
406           	2.726803e-03	6.539373e-04	6.495028e-04	2.398586e-03
407           	2.717691e-03	6.520970e-04	6.473350e-04	2.388474e-03
408           	2.709692e-03	6.504506e-04	6.457481e-04	2.382358e-03
409           	2.702283e-03	6.492645e-04	6.450305e-04	2.385489e-03
410           	2.694881e-03	6.479299e-04	6.438146e-04	2.385167e-03
411           	2.687523e-03	6.468700e-04	6.435630e-04	2.394086e-03
412           	2.679444e-03	6.457614e-04	6.428227e-04	2.391195e-03
413           	2.671233e-03	6.437691e-04	6.404258e-04	2.381586e-03
414           	2.664001e-03	6.426178e-04	6.403962e-04	2.383185e-03
415           	2.656450e-03	6.429116e-04	6.408477e-04	2.396437e-03
416           	2.648549e-03	6.401274e-04	6.376592e-04	2.384248e-03
417           	2.640621e-03	6.383112e-04	6.360064e-04	2.378424e-03
418           	2.633930e-03	6.382690e-04	6.375873e-04	2.395511e-03
419           	2.626950e-03	6.358842e-04	6.342057e-04	2.379513e-03
420           	2.620220e-03	6.343504e-04	6.329577e-04	2.378159e-03
421           	2.612153e-03	6.333488e-04	6.322636e-04	2.382774e-03
422           	2.604961e-03	6.317751e-04	6.306713e-04	2.375314e-03
423           	2.596683e-03	6.300919e-04	6.290230e-04	2.368802e-03
424           	2.588884e-03	6.289675e-04	6.283319e-04	2.371153e-03
425           	2.582489e-03	6.276945e-04	6.272896e-04	2.373630e-03
426           	2.576870e-03	6.278852e-04	6.297568e-04	2.409314e-03
427           	2.568970e-03	6.254076e-04	6.263451e-04	2.378664e-03
428           	2.561937e-03	6.238282e-04	6.246991e-04	2.372958e-03
429           	2.556018e-03	6.236124e-04	6.252703e-04	2.381765e-03
430           	2.550760e-03	6.216298e-04	6.226534e-04	2.375305e-03
431           	2.542000e-03	6.201722e-04	6.214148e-04	2.374526e-03
432           	2.535415e-03	6.192351e-04	6.211450e-04	2.376869e-03
433           	2.527993e-03	6.174854e-04	6.190295e-04	2.369030e-03
434           	2.520292e-03	6.160232e-04	6.178274e-04	2.365761e-03
435           	2.514477e-03	6.149913e-04	6.172048e-04	2.369255e-03
436           	2.508370e-03	6.142311e-04	6.172396e-04	2.381324e-03
437           	2.500415e-03	6.125784e-04	6.154606e-04	2.371715e-03
438           	2.493409e-03	6.114420e-04	6.147411e-04	2.369294e-03
439           	2.487868e-03	6.833375e-04	7.578917e-04	3.450349e-03
440           	2.488351e-03	6.091423e-04	6.128002e-04	2.379300e-03
441           	2.481045e-03	6.084997e-04	6.125221e-04	2.386527e-03
442           	2.475161e-03	6.068121e-04	6.110614e-04	2.377469e-03
443           	2.467095e-03	6.051290e-04	6.093011e-04	2.369246e-03
444           	2.459139e-03	6.041178e-04	6.087025e-04	2.370247e-03
445           	2.453302e-03	6.029609e-04	6.076422e-04	2.373910e-03
446           	2.447622e-03	6.020699e-04	6.078244e-04	2.384719e-03