# Forces      
# CofR        : (0.000000e+00 0.000000e+00 0.000000e+00)
# Time        forces(pressure viscous)	moments(pressure viscous)
0             	((0.000000e+00 0.000000e+00 0.000000e+00) (0.000000e+00 0.000000e+00 0.000000e+00)) ((0.000000e+00 0.000000e+00 0.000000e+00) (0.000000e+00 0.000000e+00 0.000000e+00))
1             	((-1.182092e+00 6.123439e-02 -2.838750e-03) (4.432139e-03 -5.907537e-05 -1.258966e-04)) ((-5.758470e-06 -1.351702e-04 -9.937094e-04) (-7.940938e-08 -2.079818e-06 1.291585e-06))
2             	((-1.002616e+00 5.123126e-02 -4.125323e-03) (8.213471e-02 -1.043846e-03 2.401141e-04)) ((-4.420070e-06 -7.403242e-05 -8.487903e-04) (-2.531564e-08 2.771313e-06 2.176793e-05))
3             	((-5.594987e-01 2.709393e-02 -1.916325e-03) (9.697278e-02 -1.147521e-03 5.597956e-04)) ((-2.318311e-06 -7.779914e-06 -4.373794e-04) (-2.868380e-08 5.517795e-07 2.596768e-05))
4             	((-9.155285e-02 3.849748e-03 1.616194e-03) (7.745569e-02 -8.428536e-04 5.285924e-04)) ((-6.451615e-07 3.768474e-05 -2.238883e-05) (-2.239706e-08 -1.062522e-06 2.096891e-05))
5             	((2.456370e-01 -1.239148e-02 4.563696e-03) (4.388674e-02 -3.865048e-04 1.751128e-04)) ((3.991670e-07 4.652408e-05 2.490846e-04) (2.759617e-08 -1.056916e-06 1.244038e-05))
6             	((4.040371e-01 -1.988195e-02 5.329283e-03) (1.198304e-02 3.177327e-06 -1.901734e-04)) ((1.053791e-06 4.089554e-05 3.470970e-04) (7.286782e-08 -7.583889e-07 4.784403e-06))
7             	((4.008683e-01 -1.938925e-02 4.535296e-03) (-7.281001e-03 1.607402e-04 -3.057406e-04)) ((1.202234e-06 2.562542e-05 3.158809e-04) (7.106855e-08 -1.146160e-06 3.583675e-09))
8             	((2.937754e-01 -1.419374e-02 3.141558e-03) (-1.272519e-02 1.478185e-04 -2.000269e-04)) ((9.558600e-07 6.090671e-06 2.081337e-04) (3.192023e-08 -2.124528e-06 -1.679374e-06))
9             	((1.409255e-01 -7.032040e-03 1.785018e-03) (-6.743850e-03 2.215059e-05 -4.382712e-05)) ((4.539721e-07 -1.358847e-05 7.648390e-05) (-5.678636e-09 -2.788455e-06 -8.848350e-07))
10            	((-1.888736e-04 -6.130104e-04 8.309724e-04) (4.082340e-03 -1.144608e-04 5.137508e-05)) ((-9.823008e-08 -2.749613e-05 -3.453557e-05) (-2.193993e-08 -2.683571e-06 1.305299e-06))
11            	((-9.547388e-02 3.698726e-03 3.759249e-04) (1.538010e-02 -2.320195e-04 7.703161e-05)) ((-5.468005e-07 -3.370655e-05 -1.020228e-04) (-2.000891e-08 -2.028506e-06 3.805020e-06))
12            	((-1.336301e-01 5.533011e-03 3.252814e-04) (2.439400e-02 -3.121156e-04 6.183708e-05)) ((-8.089318e-07 -3.270947e-05 -1.220743e-04) (-1.027766e-08 -1.218252e-06 5.876586e-06))
13            	((-1.230952e-01 5.326177e-03 4.605497e-04) (2.972211e-02 -3.502250e-04 3.219749e-05)) ((-8.516803e-07 -2.609885e-05 -1.050283e-04) (-1.011234e-09 -5.238841e-07 7.096768e-06))
14            	((-8.265611e-02 3.834423e-03 6.297559e-04) (3.117453e-02 -3.509716e-04 -5.178760e-07)) ((-7.235519e-07 -1.722122e-05 -6.828944e-05) (4.984000e-09 -5.586598e-08 7.370028e-06))
15            	((-3.333963e-02 1.933631e-03 7.028332e-04) (2.951219e-02 -3.256477e-04 -3.212508e-05)) ((-4.913663e-07 -8.757656e-06 -2.828723e-05) (8.211056e-09 2.029105e-07 6.858827e-06))
16            	((8.244493e-03 2.679603e-04 6.257023e-04) (2.605685e-02 -2.879865e-04 -5.848225e-05)) ((-2.265513e-07 -2.458712e-06 2.964215e-06) (9.340128e-09 2.994877e-07 5.887902e-06))
17            	((3.300698e-02 -8.223795e-04 4.201094e-04) (2.222270e-02 -2.501139e-04 -7.461536e-05)) ((1.043937e-08 1.001390e-06 1.969680e-05) (8.518103e-09 2.747915e-07 4.822666e-06))
18            	((3.946840e-02 -1.226293e-03 1.800784e-04) (1.909537e-02 -2.202122e-04 -7.752741e-05)) ((1.630877e-07 1.459060e-06 2.237776e-05) (5.797575e-09 1.702651e-07 3.949776e-06))
19            	((3.164125e-02 -1.095823e-03 -8.779891e-06) (1.720623e-02 -2.011870e-04 -6.924187e-05)) ((2.168997e-07 -3.594745e-07 1.484423e-05) (1.985504e-09 3.992758e-08 3.413535e-06))
20            	((1.619243e-02 -6.486542e-04 -1.057563e-04) (1.655683e-02 -1.919018e-04 -5.523514e-05)) ((1.881230e-07 -3.193357e-06 2.558602e-06) (-1.787501e-09 -6.648162e-08 3.217726e-06))
21            	((-1.468520e-04 -1.180204e-04 -1.019276e-04) (1.680149e-02 -1.890743e-04 -4.121723e-05)) ((1.060725e-07 -6.002795e-06 -9.442099e-06) (-4.664759e-09 -1.199541e-07 3.272060e-06))
22            	((-1.253162e-02 3.227679e-04 -2.748196e-05) (1.746365e-02 -1.888925e-04 -3.124756e-05)) ((7.619680e-09 -7.998557e-06 -1.782524e-05) (-6.210699e-09 -1.145211e-07 3.449899e-06))
23            	((-1.874330e-02 5.841021e-04 7.231333e-05) (1.810840e-02 -1.882279e-04 -2.709979e-05)) ((-7.606606e-08 -8.829981e-06 -2.135008e-05) (-6.427886e-09 -6.269218e-08 3.634228e-06))
24            	((-1.899397e-02 6.540414e-04 1.553917e-04) (1.844429e-02 -1.852059e-04 -2.862843e-05)) ((-1.247632e-07 -8.541094e-06 -2.052348e-05) (-5.604445e-09 1.481453e-08 3.745092e-06))
25            	((-1.509292e-02 5.709469e-04 1.952696e-04) (1.835660e-02 -1.792214e-04 -3.435277e-05)) ((-1.324672e-07 -7.453934e-06 -1.698112e-05) (-4.176541e-09 9.645553e-08 3.749806e-06))
26            	((-9.422650e-03 4.047811e-04 1.871467e-04) (1.788399e-02 -1.707355e-04 -4.212816e-05)) ((-1.074858e-07 -6.043977e-06 -1.256505e-05) (-2.572158e-09 1.650759e-07 3.656755e-06))
27            	((-4.099166e-03 2.201124e-04 1.444951e-04) (1.716109e-02 -1.607850e-04 -4.982661e-05)) ((-6.449060e-08 -4.786977e-06 -8.715017e-06) (-1.121946e-09 2.118320e-07 3.499696e-06))
28            	((-4.737200e-04 6.943181e-05 8.363470e-05) (1.635373e-02 -1.505771e-04 -5.586239e-05)) ((-1.805658e-08 -3.893982e-06 -6.305807e-06) (-3.099338e-11 2.361952e-07 3.321412e-06))
29            	((9.971889e-04 -2.379097e-05 2.879410e-05) (1.560426e-02 -1.411327e-04 -5.941866e-05)) ((1.843856e-08 -3.522448e-06 -5.479796e-06) (6.270833e-10 2.425412e-07 3.158465e-06))
30            	((6.075053e-04 -5.822230e-05 -7.252714e-06) (1.499892e-02 -1.330210e-04 -6.057543e-05)) ((3.843071e-08 -3.597205e-06 -5.944598e-06) (9.285962e-10 2.397855e-07 3.033315e-06))
31            	((-9.250257e-04 -4.723348e-05 -1.961259e-05) (1.456083e-02 -1.263763e-04 -5.996909e-05)) ((4.141569e-08 -3.953639e-06 -7.100124e-06) (1.012959e-09 2.361119e-07 2.951949e-06))
32            	((-2.790249e-03 -1.175848e-05 -1.187724e-05) (1.426343e-02 -1.210076e-04 -5.851027e-05)) ((3.153367e-08 -4.396224e-06 -8.365057e-06) (1.040973e-09 2.374501e-07 2.907150e-06))
33            	((-4.343654e-03 2.813743e-05 6.318226e-06) (1.405341e-02 -1.165480e-04 -5.702023e-05)) ((1.566299e-08 -4.744795e-06 -9.311091e-06) (1.121976e-09 2.460860e-07 2.884859e-06))
34            	((-5.230195e-03 5.839628e-05 2.494922e-05) (1.387368e-02 -1.126010e-04 -5.603281e-05)) ((2.680610e-10 -4.904354e-06 -9.733031e-06) (1.301144e-09 2.610448e-07 2.869996e-06))
35            	((-5.391454e-03 7.142767e-05 3.787827e-05) (1.368000e-02 -1.088347e-04 -5.575638e-05)) ((-1.054838e-08 -4.876716e-06 -9.643182e-06) (1.568961e-09 2.795606e-07 2.850860e-06))
36            	((-4.993027e-03 6.712046e-05 4.036294e-05) (1.344931e-02 -1.050467e-04 -5.611495e-05)) ((-1.429834e-08 -4.687801e-06 -9.208671e-06) (1.879731e-09 2.984759e-07 2.821521e-06))
37            	((-4.298309e-03 5.007669e-05 3.331661e-05) (1.317905e-02 -1.011798e-04 -5.682188e-05)) ((-1.175879e-08 -4.424592e-06 -8.622060e-06) (2.156890e-09 3.149626e-07 2.781244e-06))
38            	((-3.571935e-03 2.700437e-05 2.073644e-05) (1.288123e-02 -9.728006e-05 -5.756152e-05)) ((-5.362916e-09 -4.179419e-06 -8.064481e-06) (2.346845e-09 3.279262e-07 2.733031e-06))
39            	((-3.004760e-03 4.180870e-06 5.690387e-06) (1.257479e-02 -9.345332e-05 -5.809444e-05)) ((2.819531e-09 -3.987611e-06 -7.654171e-06) (2.423878e-09 3.372895e-07 2.681733e-06))
40            	((-2.682800e-03 -1.395410e-05 -8.078154e-06) (1.227804e-02 -8.981471e-05 -5.827927e-05)) ((1.033833e-08 -3.872063e-06 -7.430188e-06) (2.380301e-09 3.434683e-07 2.631988e-06))
41            	((-2.599409e-03 -2.546550e-05 -1.800072e-05) (1.200375e-02 -8.645079e-05 -5.810360e-05)) ((1.574021e-08 -3.829475e-06 -7.370854e-06) (2.235865e-09 3.474921e-07 2.587044e-06))
42            	((-2.681024e-03 -3.051392e-05 -2.314016e-05) (1.175715e-02 -8.339832e-05 -5.764969e-05)) ((1.830391e-08 -3.839961e-06 -7.413741e-06) (2.022175e-09 3.503729e-07 2.548213e-06))
43            	((-2.834784e-03 -3.060637e-05 -2.427369e-05) (1.153667e-02 -8.064814e-05 -5.704263e-05)) ((1.838389e-08 -3.873969e-06 -7.484105e-06) (1.775841e-09 3.529278e-07 2.515053e-06))
44            	((-2.975325e-03 -2.816499e-05 -2.319540e-05) (1.133638e-02 -7.815586e-05 -5.639471e-05)) ((1.688663e-08 -3.900385e-06 -7.526975e-06) (1.523829e-09 3.555310e-07 2.486026e-06))
45            	((-3.050582e-03 -2.550811e-05 -2.186483e-05) (1.114898e-02 -7.585902e-05 -5.578963e-05)) ((1.491875e-08 -3.899831e-06 -7.516940e-06) (1.285975e-09 3.580926e-07 2.459345e-06))
46            	((-3.042239e-03 -2.377774e-05 -2.168287e-05) (1.096809e-02 -7.370165e-05 -5.525155e-05)) ((1.332478e-08 -3.867183e-06 -7.446021e-06) (1.062979e-09 3.602441e-07 2.433447e-06))
47            	((-2.961245e-03 -2.381195e-05 -2.337080e-05) (1.078954e-02 -7.163930e-05 -5.476282e-05)) ((1.260710e-08 -3.806879e-06 -7.330333e-06) (8.463999e-10 3.616693e-07 2.407369e-06))
48            	((-2.834572e-03 -2.544851e-05 -2.690239e-05) (1.061171e-02 -6.964477e-05 -5.428167e-05)) ((1.288966e-08 -3.730507e-06 -7.189440e-06) (6.248405e-10 3.621256e-07 2.380752e-06))
49            	((-2.694183e-03 -2.815987e-05 -3.148095e-05) (1.043503e-02 -6.770712e-05 -5.376254e-05)) ((1.385539e-08 -3.655942e-06 -7.049071e-06) (3.861067e-10 3.616503e-07 2.353791e-06))
50            	((-2.567400e-03 -3.092138e-05 -3.656124e-05) (1.026129e-02 -6.583175e-05 -5.316936e-05)) ((1.523118e-08 -3.588950e-06 -6.921580e-06) (1.232024e-10 3.604053e-07 2.326994e-06))
51            	((-2.469574e-03 -3.284726e-05 -4.159738e-05) (1.009267e-02 -6.403823e-05 -5.249169e-05)) ((1.669327e-08 -3.531662e-06 -6.813914e-06) (-1.628845e-10 3.584519e-07 2.300882e-06))
52            	((-2.401671e-03 -3.402250e-05 -4.586347e-05) (9.930783e-03 -6.233817e-05 -5.173779e-05)) ((1.787198e-08 -3.488730e-06 -6.727249e-06) (-4.675446e-10 3.558871e-07 2.275875e-06))
53            	((-2.358598e-03 -3.439857e-05 -4.931557e-05) (9.776395e-03 -6.073305e-05 -5.093327e-05)) ((1.870749e-08 -3.452903e-06 -6.655988e-06) (-7.824204e-10 3.529198e-07 2.252249e-06))
54            	((-2.329831e-03 -3.390068e-05 -5.205307e-05) (9.629482e-03 -5.922472e-05 -5.010397e-05)) ((1.915498e-08 -3.420817e-06 -6.591471e-06) (-1.101063e-09 3.496161e-07 2.230014e-06))
55            	((-2.304009e-03 -3.285639e-05 -5.434041e-05) (9.489308e-03 -5.780804e-05 -4.926883e-05)) ((1.930727e-08 -3.388799e-06 -6.526229e-06) (-1.418354e-09 3.461172e-07 2.209004e-06))
56            	((-2.273124e-03 -3.159659e-05 -5.646677e-05) (9.354813e-03 -5.647176e-05 -4.843734e-05)) ((1.928820e-08 -3.354750e-06 -6.456442e-06) (-1.732237e-09 3.425524e-07 2.188997e-06))
57            	((-2.233511e-03 -3.034072e-05 -5.870537e-05) (9.224959e-03 -5.520376e-05 -4.762117e-05)) ((1.923467e-08 -3.317419e-06 -6.380955e-06) (-2.039081e-09 3.389088e-07 2.169783e-06))
58            	((-2.185688e-03 -2.913037e-05 -6.122851e-05) (9.098952e-03 -5.399415e-05 -4.682354e-05)) ((1.923842e-08 -3.277228e-06 -6.301098e-06) (-2.337621e-09 3.351571e-07 2.151207e-06))
59            	((-2.131955e-03 -2.815727e-05 -6.394883e-05) (8.976318e-03 -5.283466e-05 -4.604121e-05)) ((1.933812e-08 -3.235776e-06 -6.216793e-06) (-2.629183e-09 3.312980e-07 2.133170e-06))
60            	((-2.076828e-03 -2.721563e-05 -6.692741e-05) (8.856906e-03 -5.172077e-05 -4.527211e-05)) ((1.955322e-08 -3.193335e-06 -6.132283e-06) (-2.914599e-09 3.273211e-07 2.115627e-06))
61            	((-2.023731e-03 -2.622387e-05 -7.004530e-05) (8.740788e-03 -5.065121e-05 -4.450862e-05)) ((1.984374e-08 -3.151982e-06 -6.049730e-06) (-3.197286e-09 3.232570e-07 2.098607e-06))
62            	((-1.975066e-03 -2.512681e-05 -7.321361e-05) (8.628118e-03 -4.962543e-05 -4.374544e-05)) ((2.018351e-08 -3.111886e-06 -5.970621e-06) (-3.479952e-09 3.191844e-07 2.082153e-06))
63            	((-1.930956e-03 -2.388594e-05 -7.622033e-05) (8.518997e-03 -4.864253e-05 -4.299070e-05)) ((2.046464e-08 -3.075212e-06 -5.894674e-06) (-3.760699e-09 3.150673e-07 2.066302e-06))
64            	((-1.890680e-03 -2.251063e-05 -7.905283e-05) (8.413402e-03 -4.769950e-05 -4.225521e-05)) ((2.067852e-08 -3.040961e-06 -5.821282e-06) (-4.035656e-09 3.109141e-07 2.051069e-06))
65            	((-1.853088e-03 -2.113470e-05 -8.167402e-05) (8.311224e-03 -4.679318e-05 -4.154595e-05)) ((2.082741e-08 -3.007828e-06 -5.748700e-06) (-4.302742e-09 3.067477e-07 2.036442e-06))
66            	((-1.816628e-03 -1.977064e-05 -8.410747e-05) (8.212274e-03 -4.591891e-05 -4.086938e-05)) ((2.090771e-08 -2.975946e-06 -5.676499e-06) (-4.560268e-09 3.025695e-07 2.022386e-06))
67            	((-1.780789e-03 -1.839042e-05 -8.649778e-05) (8.116343e-03 -4.507352e-05 -4.022539e-05)) ((2.097815e-08 -2.943915e-06 -5.605034e-06) (-4.808746e-09 2.984519e-07 2.008867e-06))
68            	((-1.745279e-03 -1.698308e-05 -8.893155e-05) (8.023268e-03 -4.425573e-05 -3.960790e-05)) ((2.107837e-08 -2.910818e-06 -5.534645e-06) (-5.051035e-09 2.944495e-07 1.995867e-06))
69            	((-1.709476e-03 -1.561644e-05 -9.137815e-05) (7.932873e-03 -4.346355e-05 -3.901994e-05)) ((2.119919e-08 -2.877505e-06 -5.465284e-06) (-5.286555e-09 2.905018e-07 1.983363e-06))
70            	((-1.673563e-03 -1.430895e-05 -9.386737e-05) (7.844984e-03 -4.269375e-05 -3.846481e-05)) ((2.136243e-08 -2.843824e-06 -5.397363e-06) (-5.513739e-09 2.865913e-07 1.971334e-06))
71            	((-1.638117e-03 -1.316764e-05 -9.632586e-05) (7.759493e-03 -4.194364e-05 -3.794176e-05)) ((2.156306e-08 -2.809998e-06 -5.330579e-06) (-5.732866e-09 2.827253e-07 1.959768e-06))
72            	((-1.602896e-03 -1.213540e-05 -9.876629e-05) (7.676293e-03 -4.121056e-05 -3.745038e-05)) ((2.179643e-08 -2.776262e-06 -5.264567e-06) (-5.943571e-09 2.788857e-07 1.948639e-06))
73            	((-1.568775e-03 -1.118774e-05 -1.012342e-04) (7.595308e-03 -4.049343e-05 -3.698628e-05)) ((2.208172e-08 -2.742555e-06 -5.200231e-06) (-6.146622e-09 2.751400e-07 1.937925e-06))
74            	((-1.535966e-03 -1.032373e-05 -1.037074e-04) (7.516518e-03 -3.979154e-05 -3.654090e-05)) ((2.240341e-08 -2.709178e-06 -5.138977e-06) (-6.344518e-09 2.715423e-07 1.927640e-06))
75            	((-1.504567e-03 -9.515383e-06 -1.061920e-04) (7.439897e-03 -3.910472e-05 -3.611715e-05)) ((2.275987e-08 -2.675816e-06 -5.080516e-06) (-6.535411e-09 2.680504e-07 1.917797e-06))
76            	((-1.473989e-03 -8.764137e-06 -1.086572e-04) (7.365373e-03 -3.843240e-05 -3.571659e-05)) ((2.312922e-08 -2.642910e-06 -5.024355e-06) (-6.718169e-09 2.646238e-07 1.908385e-06))
77            	((-1.443827e-03 -8.185715e-06 -1.110466e-04) (7.292827e-03 -3.777297e-05 -3.533963e-05)) ((2.350345e-08 -2.610143e-06 -4.969018e-06) (-6.891578e-09 2.612801e-07 1.899378e-06))
78            	((-1.414472e-03 -7.725657e-06 -1.134149e-04) (7.222180e-03 -3.712457e-05 -3.498767e-05)) ((2.390015e-08 -2.577168e-06 -4.915843e-06) (-7.054168e-09 2.580238e-07 1.890754e-06))
79            	((-1.385412e-03 -7.336130e-06 -1.157741e-04) (7.153357e-03 -3.648680e-05 -3.465428e-05)) ((2.429834e-08 -2.544847e-06 -4.864222e-06) (-7.207464e-09 2.548779e-07 1.882498e-06))
80            	((-1.356975e-03 -7.038404e-06 -1.181744e-04) (7.086288e-03 -3.585903e-05 -3.433322e-05)) ((2.473340e-08 -2.512309e-06 -4.815108e-06) (-7.352338e-09 2.519183e-07 1.874600e-06))
81            	((-1.328820e-03 -6.752399e-06 -1.205719e-04) (7.020915e-03 -3.524139e-05 -3.402716e-05)) ((2.515588e-08 -2.480691e-06 -4.767523e-06) (-7.487303e-09 2.490753e-07 1.867052e-06))
82            	((-1.301395e-03 -6.512121e-06 -1.229877e-04) (6.957185e-03 -3.463373e-05 -3.373962e-05)) ((2.559689e-08 -2.449285e-06 -4.722431e-06) (-7.609917e-09 2.463237e-07 1.859846e-06))
83            	((-1.274239e-03 -6.457953e-06 -1.253529e-04) (6.895034e-03 -3.403480e-05 -3.346945e-05)) ((2.604632e-08 -2.417936e-06 -4.677970e-06) (-7.720423e-09 2.436331e-07 1.852965e-06))
84            	((-1.247781e-03 -6.489874e-06 -1.277080e-04) (6.834407e-03 -3.344317e-05 -3.321872e-05)) ((2.651185e-08 -2.386397e-06 -4.635106e-06) (-7.817515e-09 2.410009e-07 1.846385e-06))
85            	((-1.221754e-03 -6.620684e-06 -1.300562e-04) (6.775263e-03 -3.285847e-05 -3.298119e-05)) ((2.698988e-08 -2.355227e-06 -4.593690e-06) (-7.903265e-09 2.384444e-07 1.840095e-06))
86            	((-1.196178e-03 -6.782622e-06 -1.323928e-04) (6.717546e-03 -3.228038e-05 -3.275047e-05)) ((2.746632e-08 -2.324605e-06 -4.553694e-06) (-7.979681e-09 2.360341e-07 1.834079e-06))
87            	((-1.171046e-03 -6.945069e-06 -1.347149e-04) (6.661215e-03 -3.170961e-05 -3.253033e-05)) ((2.793691e-08 -2.294529e-06 -4.515134e-06) (-8.045101e-09 2.337226e-07 1.828332e-06))
88            	((-1.146297e-03 -7.106017e-06 -1.370307e-04) (6.606220e-03 -3.114643e-05 -3.232361e-05)) ((2.840802e-08 -2.264936e-06 -4.478026e-06) (-8.098470e-09 2.314673e-07 1.822841e-06))
89            	((-1.121930e-03 -7.386908e-06 -1.392919e-04) (6.552514e-03 -3.059020e-05 -3.213044e-05)) ((2.888402e-08 -2.235458e-06 -4.441389e-06) (-8.139985e-09 2.292564e-07 1.817596e-06))
90            	((-1.097924e-03 -7.742136e-06 -1.415246e-04) (6.500054e-03 -3.003926e-05 -3.195217e-05)) ((2.936523e-08 -2.206392e-06 -4.405628e-06) (-8.169460e-09 2.270663e-07 1.812580e-06))
91            	((-1.074342e-03 -8.118105e-06 -1.437466e-04) (6.448803e-03 -2.949328e-05 -3.178451e-05)) ((2.984739e-08 -2.178226e-06 -4.371158e-06) (-8.188705e-09 2.249366e-07 1.807789e-06))
92            	((-1.051209e-03 -8.487370e-06 -1.459607e-04) (6.398735e-03 -2.895250e-05 -3.162092e-05)) ((3.032875e-08 -2.150915e-06 -4.338088e-06) (-8.200265e-09 2.229259e-07 1.803226e-06))
93            	((-1.028485e-03 -8.843831e-06 -1.481643e-04) (6.349821e-03 -2.841744e-05 -3.146525e-05)) ((3.080912e-08 -2.124254e-06 -4.306362e-06) (-8.203069e-09 2.209830e-07 1.798893e-06))
94            	((-1.006116e-03 -9.186880e-06 -1.503565e-04) (6.302022e-03 -2.788818e-05 -3.132033e-05)) ((3.128938e-08 -2.098091e-06 -4.275953e-06) (-8.196551e-09 2.190687e-07 1.794785e-06))
95            	((-9.840552e-04 -9.627008e-06 -1.524810e-04) (6.255299e-03 -2.736433e-05 -3.118603e-05)) ((3.177060e-08 -2.071784e-06 -4.245689e-06) (-8.181222e-09 2.171758e-07 1.790894e-06))
96            	((-9.622929e-04 -1.011670e-05 -1.545494e-04) (6.209614e-03 -2.684467e-05 -3.106347e-05)) ((3.224908e-08 -2.045526e-06 -4.215956e-06) (-8.157095e-09 2.152874e-07 1.787204e-06))
97            	((-9.408278e-04 -1.062420e-05 -1.565772e-04) (6.164929e-03 -2.632891e-05 -3.094797e-05)) ((3.272517e-08 -2.019571e-06 -4.187003e-06) (-8.126274e-09 2.134467e-07 1.783708e-06))
98            	((-9.196688e-04 -1.112673e-05 -1.585583e-04) (6.121219e-03 -2.581704e-05 -3.083305e-05)) ((3.319306e-08 -1.993955e-06 -4.158978e-06) (-8.091425e-09 2.117180e-07 1.780406e-06))
99            	((-8.988259e-04 -1.161242e-05 -1.604847e-04) (6.078460e-03 -2.530942e-05 -3.072276e-05)) ((3.364798e-08 -1.968673e-06 -4.131986e-06) (-8.051303e-09 2.100559e-07 1.777301e-06))
100           	((-8.783062e-04 -1.206332e-05 -1.623581e-04) (6.036623e-03 -2.480624e-05 -3.062017e-05)) ((3.408687e-08 -1.943777e-06 -4.106154e-06) (-8.005149e-09 2.084253e-07 1.774394e-06))
101           	((-8.580990e-04 -1.257510e-05 -1.641306e-04) (5.995684e-03 -2.430735e-05 -3.052536e-05)) ((3.450986e-08 -1.918799e-06 -4.080438e-06) (-7.953276e-09 2.068235e-07 1.771681e-06))
102           	((-8.381903e-04 -1.310226e-05 -1.658300e-04) (5.955617e-03 -2.381178e-05 -3.043964e-05)) ((3.491777e-08 -1.893981e-06 -4.055264e-06) (-7.895538e-09 2.052358e-07 1.769152e-06))
103           	((-8.185804e-04 -1.360977e-05 -1.674824e-04) (5.916395e-03 -2.331939e-05 -3.035875e-05)) ((3.531272e-08 -1.869668e-06 -4.030907e-06) (-7.833842e-09 2.037070e-07 1.766802e-06))
104           	((-7.991328e-04 -1.407229e-05 -1.690688e-04) (5.877993e-03 -2.283017e-05 -3.027659e-05)) ((3.568029e-08 -1.846335e-06 -4.007295e-06) (-7.770562e-09 2.023014e-07 1.764630e-06))
105           	((-7.800526e-04 -1.449044e-05 -1.706209e-04) (5.840390e-03 -2.234452e-05 -3.019813e-05)) ((3.603805e-08 -1.823340e-06 -3.984731e-06) (-7.703921e-09 2.009777e-07 1.762639e-06))
106           	((-7.613254e-04 -1.485832e-05 -1.721397e-04) (5.803575e-03 -2.186286e-05 -3.012638e-05)) ((3.638619e-08 -1.800733e-06 -3.963222e-06) (-7.633314e-09 1.996882e-07 1.760830e-06))
107           	((-7.429021e-04 -1.527868e-05 -1.735697e-04) (5.767528e-03 -2.138512e-05 -3.006182e-05)) ((3.672410e-08 -1.778121e-06 -3.941594e-06) (-7.558990e-09 1.984235e-07 1.759198e-06))
108           	((-7.247445e-04 -1.570756e-05 -1.749283e-04) (5.732227e-03 -2.091037e-05 -3.000621e-05)) ((3.705053e-08 -1.755829e-06 -3.920204e-06) (-7.480668e-09 1.971664e-07 1.757729e-06))
109           	((-7.068228e-04 -1.611572e-05 -1.762364e-04) (5.697644e-03 -2.043848e-05 -2.995552e-05)) ((3.736823e-08 -1.734225e-06 -3.899240e-06) (-7.400156e-09 1.959615e-07 1.756417e-06))
110           	((-6.891217e-04 -1.648574e-05 -1.774936e-04) (5.663761e-03 -1.996957e-05 -2.990379e-05)) ((3.767542e-08 -1.713401e-06 -3.878803e-06) (-7.319834e-09 1.948743e-07 1.755259e-06))
111           	((-6.716368e-04 -1.680809e-05 -1.786966e-04) (5.630558e-03 -1.950409e-05 -2.985553e-05)) ((3.797114e-08 -1.693364e-06 -3.858931e-06) (-7.238298e-09 1.938596e-07 1.754256e-06))
112           	((-6.543653e-04 -1.707020e-05 -1.798486e-04) (5.598014e-03 -1.904235e-05 -2.981421e-05)) ((3.825632e-08 -1.674154e-06 -3.839709e-06) (-7.154687e-09 1.928820e-07 1.753407e-06))
113           	((-6.373148e-04 -1.736670e-05 -1.809009e-04) (5.566111e-03 -1.858437e-05 -2.978032e-05)) ((3.853295e-08 -1.655293e-06 -3.820084e-06) (-7.069231e-09 1.919379e-07 1.752709e-06))
114           	((-6.206690e-04 -1.766826e-05 -1.818988e-04) (5.534842e-03 -1.812942e-05 -2.975529e-05)) ((3.881320e-08 -1.636632e-06 -3.800719e-06) (-6.981767e-09 1.910114e-07 1.752151e-06))
115           	((-6.041655e-04 -1.792663e-05 -1.828366e-04) (5.504191e-03 -1.767761e-05 -2.973443e-05)) ((3.908560e-08 -1.618923e-06 -3.781513e-06) (-6.894443e-09 1.901406e-07 1.751729e-06))
116           	((-5.878142e-04 -1.812960e-05 -1.837155e-04) (5.474133e-03 -1.722923e-05 -2.971212e-05)) ((3.934820e-08 -1.602125e-06 -3.762596e-06) (-6.809386e-09 1.893983e-07 1.751437e-06))
117           	((-5.716529e-04 -1.827363e-05 -1.845330e-04) (5.444654e-03 -1.678485e-05 -2.969286e-05)) ((3.959935e-08 -1.586107e-06 -3.744033e-06) (-6.725117e-09 1.887404e-07 1.751276e-06))
118           	((-5.557207e-04 -1.835409e-05 -1.852918e-04) (5.415739e-03 -1.634477e-05 -2.968006e-05)) ((3.983881e-08 -1.570786e-06 -3.725948e-06) (-6.640630e-09 1.881296e-07 1.751245e-06))
119           	((-5.400032e-04 -1.847822e-05 -1.859418e-04) (5.387375e-03 -1.590894e-05 -2.967408e-05)) ((4.006785e-08 -1.555561e-06 -3.707306e-06) (-6.555952e-09 1.875582e-07 1.751339e-06))
120           	((-5.245297e-04 -1.860457e-05 -1.865058e-04) (5.359551e-03 -1.547640e-05 -2.967649e-05)) ((4.028572e-08 -1.540610e-06 -3.688565e-06) (-6.470648e-09 1.870069e-07 1.751549e-06))
121           	((-5.091186e-04 -1.870533e-05 -1.869907e-04) (5.332246e-03 -1.504712e-05 -2.968317e-05)) ((4.048710e-08 -1.526411e-06 -3.669920e-06) (-6.386289e-09 1.865168e-07 1.751867e-06))
122           	((-4.940499e-04 -1.877464e-05 -1.874335e-04) (5.305451e-03 -1.462128e-05 -2.968832e-05)) ((4.068238e-08 -1.512477e-06 -3.651662e-06) (-6.304856e-09 1.861533e-07 1.752295e-06))
123           	((-4.791698e-04 -1.879370e-05 -1.878067e-04) (5.279163e-03 -1.419943e-05 -2.969586e-05)) ((4.085832e-08 -1.499162e-06 -3.633673e-06) (-6.224823e-09 1.858606e-07 1.752833e-06))
124           	((-4.645690e-04 -1.877020e-05 -1.881289e-04) (5.253368e-03 -1.378181e-05 -2.970962e-05)) ((4.102269e-08 -1.486192e-06 -3.616245e-06) (-6.144734e-09 1.856036e-07 1.753481e-06))
125           	((-4.502207e-04 -1.880564e-05 -1.883505e-04) (5.228059e-03 -1.336820e-05 -2.972985e-05)) ((4.117493e-08 -1.473120e-06 -3.598266e-06) (-6.064478e-09 1.853702e-07 1.754237e-06))
126           	((-4.360796e-04 -1.885636e-05 -1.884942e-04) (5.203223e-03 -1.295761e-05 -2.975811e-05)) ((4.131227e-08 -1.460256e-06 -3.580158e-06) (-5.983374e-09 1.851411e-07 1.755090e-06))
127           	((-4.221152e-04 -1.889558e-05 -1.885876e-04) (5.178844e-03 -1.254990e-05 -2.979018e-05)) ((4.143766e-08 -1.447927e-06 -3.562151e-06) (-5.902796e-09 1.849589e-07 1.756034e-06))
128           	((-4.083063e-04 -1.891019e-05 -1.886350e-04) (5.154910e-03 -1.214514e-05 -2.981985e-05)) ((4.154897e-08 -1.436218e-06 -3.544386e-06) (-5.824702e-09 1.848875e-07 1.757068e-06))
129           	((-3.946439e-04 -1.889527e-05 -1.886383e-04) (5.131410e-03 -1.174375e-05 -2.985142e-05)) ((4.164532e-08 -1.425125e-06 -3.526960e-06) (-5.747262e-09 1.848796e-07 1.758194e-06))
130           	((-3.811699e-04 -1.884052e-05 -1.886061e-04) (5.108335e-03 -1.134588e-05 -2.988822e-05)) ((4.172924e-08 -1.414671e-06 -3.510023e-06) (-5.669185e-09 1.848982e-07 1.759412e-06))
131           	((-3.678698e-04 -1.885194e-05 -1.884944e-04) (5.085675e-03 -1.095140e-05 -2.993051e-05)) ((4.180322e-08 -1.404350e-06 -3.492529e-06) (-5.590361e-09 1.849352e-07 1.760717e-06))
132           	((-3.548321e-04 -1.889769e-05 -1.883332e-04) (5.063426e-03 -1.055935e-05 -2.997981e-05)) ((4.187141e-08 -1.394320e-06 -3.475348e-06) (-5.510168e-09 1.849732e-07 1.762104e-06))
133           	((-3.418876e-04 -1.893786e-05 -1.881525e-04) (5.041577e-03 -1.016958e-05 -3.003144e-05)) ((4.193538e-08 -1.384897e-06 -3.458230e-06) (-5.430278e-09 1.850468e-07 1.763567e-06))
134           	((-3.290684e-04 -1.895863e-05 -1.879563e-04) (5.020110e-03 -9.782136e-06 -3.007954e-05)) ((4.199395e-08 -1.376111e-06 -3.441346e-06) (-5.352646e-09 1.852232e-07 1.765102e-06))
135           	((-3.164191e-04 -1.895479e-05 -1.877404e-04) (4.999020e-03 -9.397404e-06 -3.012856e-05)) ((4.204503e-08 -1.367954e-06 -3.424818e-06) (-5.275570e-09 1.854536e-07 1.766709e-06))
136           	((-3.038336e-04 -1.891726e-05 -1.875011e-04) (4.978293e-03 -9.015564e-06 -3.018194e-05)) ((4.208472e-08 -1.360479e-06 -3.408696e-06) (-5.197824e-09 1.856962e-07 1.768387e-06))
137           	((-2.914452e-04 -1.895419e-05 -1.872029e-04) (4.957918e-03 -8.636475e-06 -3.024050e-05)) ((4.212294e-08 -1.352909e-06 -3.392052e-06) (-5.119223e-09 1.859445e-07 1.770133e-06))
138           	((-2.793162e-04 -1.902441e-05 -1.868634e-04) (4.937901e-03 -8.259349e-06 -3.030575e-05)) ((4.215711e-08 -1.345512e-06 -3.375815e-06) (-5.039367e-09 1.861738e-07 1.771943e-06))
139           	((-2.673852e-04 -1.910732e-05 -1.865090e-04) (4.918241e-03 -7.884116e-06 -3.037333e-05)) ((4.219068e-08 -1.338513e-06 -3.359897e-06) (-4.959893e-09 1.864171e-07 1.773819e-06))
140           	((-2.555884e-04 -1.919209e-05 -1.861311e-04) (4.898929e-03 -7.510778e-06 -3.043753e-05)) ((4.221875e-08 -1.332029e-06 -3.344604e-06) (-4.882853e-09 1.867382e-07 1.775762e-06))
141           	((-2.440421e-04 -1.925919e-05 -1.857389e-04) (4.879964e-03 -7.139806e-06 -3.050300e-05)) ((4.224276e-08 -1.325869e-06 -3.329783e-06) (-4.806534e-09 1.870872e-07 1.777774e-06))
142           	((-2.325782e-04 -1.931149e-05 -1.853209e-04) (4.861333e-03 -6.771400e-06 -3.057310e-05)) ((4.225560e-08 -1.320207e-06 -3.315542e-06) (-4.729769e-09 1.874209e-07 1.779854e-06))
143           	((-2.212059e-04 -1.944698e-05 -1.848305e-04) (4.843021e-03 -6.405308e-06 -3.064874e-05)) ((4.225795e-08 -1.314515e-06 -3.300773e-06) (-4.652267e-09 1.877349e-07 1.781996e-06))
144           	((-2.099363e-04 -1.962172e-05 -1.842943e-04) (4.825014e-03 -6.040587e-06 -3.073161e-05)) ((4.225004e-08 -1.308978e-06 -3.285922e-06) (-4.573421e-09 1.880102e-07 1.784189e-06))
145           	((-1.987905e-04 -1.980606e-05 -1.837419e-04) (4.807304e-03 -5.677176e-06 -3.081744e-05)) ((4.223594e-08 -1.303814e-06 -3.271285e-06) (-4.494780e-09 1.882877e-07 1.786427e-06))
146           	((-1.877857e-04 -1.998568e-05 -1.831782e-04) (4.789889e-03 -5.315238e-06 -3.089990e-05)) ((4.221428e-08 -1.299007e-06 -3.257047e-06) (-4.418484e-09 1.886291e-07 1.788712e-06))
147           	((-1.769326e-04 -2.015336e-05 -1.826018e-04) (4.772767e-03 -4.955251e-06 -3.098318e-05)) ((4.218316e-08 -1.294494e-06 -3.243327e-06) (-4.342875e-09 1.889864e-07 1.791049e-06))
148           	((-1.662339e-04 -2.029906e-05 -1.820150e-04) (4.755933e-03 -4.597459e-06 -3.107050e-05)) ((4.214178e-08 -1.290283e-06 -3.230273e-06) (-4.266755e-09 1.893223e-07 1.793438e-06))
149           	((-1.556910e-04 -2.052126e-05 -1.813680e-04) (4.739382e-03 -4.241810e-06 -3.116206e-05)) ((4.209095e-08 -1.285869e-06 -3.216846e-06) (-4.190010e-09 1.896318e-07 1.795879e-06))
150           	((-1.452915e-04 -2.077693e-05 -1.806820e-04) (4.723109e-03 -3.887453e-06 -3.125910e-05)) ((4.203038e-08 -1.281493e-06 -3.203535e-06) (-4.112019e-09 1.898988e-07 1.798363e-06))
151           	((-1.350315e-04 -2.103383e-05 -1.799808e-04) (4.707106e-03 -3.534399e-06 -3.135707e-05)) ((4.196343e-08 -1.277436e-06 -3.190594e-06) (-4.034251e-09 1.901678e-07 1.800886e-06))
152           	((-1.248942e-04 -2.128033e-05 -1.792644e-04) (4.691371e-03 -3.182849e-06 -3.144948e-05)) ((4.188929e-08 -1.273725e-06 -3.178209e-06) (-3.958769e-09 1.905042e-07 1.803451e-06))
153           	((-1.148738e-04 -2.150657e-05 -1.785274e-04) (4.675899e-03 -2.833340e-06 -3.154047e-05)) ((4.180706e-08 -1.270330e-06 -3.166441e-06) (-3.883834e-09 1.908628e-07 1.806061e-06))
154           	((-1.049661e-04 -2.170076e-05 -1.777700e-04) (4.660682e-03 -2.486203e-06 -3.163324e-05)) ((4.171786e-08 -1.267272e-06 -3.155396e-06) (-3.808238e-09 1.912083e-07 1.808718e-06))
155           	((-9.516861e-05 -2.196199e-05 -1.769418e-04) (4.645715e-03 -2.141498e-06 -3.172812e-05)) ((4.162499e-08 -1.264037e-06 -3.144022e-06) (-3.731948e-09 1.915359e-07 1.811419e-06))