# Forces      
# CofR        : (0.000000e+00 0.000000e+00 0.000000e+00)
# Time        forces(pressure viscous)	moments(pressure viscous)
0             	((0.000000e+00 0.000000e+00 0.000000e+00) (0.000000e+00 0.000000e+00 0.000000e+00)) ((0.000000e+00 0.000000e+00 0.000000e+00) (0.000000e+00 0.000000e+00 0.000000e+00))
1             	((1.182228e+00 -6.018080e-02 3.990562e-03) (-4.430387e-03 5.857985e-05 -4.058886e-04)) ((5.401366e-06 1.093186e-04 1.025817e-03) (2.042009e-07 5.948114e-06 -1.307228e-06))
2             	((1.003481e+00 -5.047253e-02 1.183140e-02) (-8.235696e-02 1.045550e-03 1.590962e-04)) ((2.560352e-06 -1.320467e-05 8.673202e-04) (-9.743380e-08 -5.534351e-06 -2.140624e-05))
3             	((5.614663e-01 -2.682140e-02 1.901794e-02) (-9.756592e-02 1.167776e-03 4.766014e-04)) ((-1.566363e-06 -1.542447e-04 4.317331e-04) (-2.788532e-07 -8.128861e-06 -2.456953e-05))
4             	((9.447452e-02 -3.920209e-03 2.086019e-02) (-7.845328e-02 8.674011e-04 2.906465e-04)) ((-4.289896e-06 -2.359531e-04 -4.881880e-06) (-2.235207e-07 -4.808211e-06 -1.832107e-05))
5             	((-2.377543e-01 1.166775e-02 1.714942e-02) (-4.503122e-02 4.103008e-04 -1.731302e-04)) ((-4.963788e-06 -2.320522e-04 -3.017098e-04) (-5.096371e-08 1.258825e-06 -9.565642e-06))
6             	((-3.940089e-01 1.895745e-02 1.020030e-02) (-1.312221e-02 2.928200e-05 -5.689402e-04)) ((-4.219828e-06 -1.703762e-04 -4.084934e-04) (1.061886e-07 6.822722e-06 -2.045157e-06))
7             	((-3.901390e-01 1.864028e-02 3.351315e-03) (6.161693e-03 -1.256023e-04 -6.605292e-04)) ((-2.760847e-06 -8.833773e-05 -3.752035e-04) (1.661363e-07 9.002903e-06 2.133811e-06))
8             	((-2.842625e-01 1.371786e-02 -1.548283e-03) (1.165197e-02 -1.139432e-04 -5.012372e-04)) ((-1.284619e-06 -1.489709e-05 -2.562245e-04) (1.453884e-07 8.229784e-06 3.114119e-06))
9             	((-1.340454e-01 6.728561e-03 -3.668625e-03) (5.841020e-03 5.272096e-06 -2.849737e-04)) ((-1.746013e-07 3.417910e-05 -1.098953e-04) (9.217375e-08 6.154207e-06 1.602311e-06))
10            	((4.210266e-03 4.188196e-04 -3.364619e-03) (-4.788444e-03 1.309917e-04 -1.381253e-04)) ((3.908384e-07 5.323142e-05 1.490244e-05) (4.888478e-08 4.134038e-06 -1.181039e-06))
11            	((9.719371e-02 -3.860930e-03 -1.690003e-03) (-1.589537e-02 2.408197e-04 -8.216346e-05)) ((5.204101e-07 4.869550e-05 9.222043e-05) (2.606857e-08 2.773315e-06 -4.092587e-06))
12            	((1.340155e-01 -5.775635e-03 2.758515e-04) (-2.473744e-02 3.187696e-04 -8.766439e-05)) ((4.077608e-07 3.094627e-05 1.167704e-04) (1.881330e-08 2.092650e-06 -6.443202e-06))
13            	((1.233101e-01 -5.720272e-03 1.795533e-03) (-2.993256e-02 3.594460e-04 -1.214799e-04)) ((2.091962e-07 9.828427e-06 9.947842e-05) (2.041026e-08 1.879993e-06 -7.860424e-06))
14            	((8.363313e-02 -4.401021e-03 2.495665e-03) (-3.130700e-02 3.659821e-04 -1.638454e-04)) ((4.275972e-08 -6.924739e-06 5.918193e-05) (2.633453e-08 1.967103e-06 -8.263240e-06))
15            	((3.538447e-02 -2.612322e-03 2.368397e-03) (-2.961813e-02 3.467358e-04 -2.019826e-04)) ((-3.388156e-08 -1.536107e-05 1.457005e-05) (3.324697e-08 2.168846e-06 -7.838959e-06))
16            	((-5.185414e-03 -9.871824e-04 1.676003e-03) (-2.617398e-02 3.131925e-04 -2.279302e-04)) ((-3.342811e-08 -1.564346e-05 -2.044061e-05) (3.883966e-08 2.354719e-06 -6.929124e-06))
17            	((-2.929307e-02 1.243041e-04 7.710928e-04) (-2.237004e-02 2.767613e-04 -2.376227e-04)) ((6.445399e-09 -1.024643e-05 -3.910737e-05) (4.173036e-08 2.459505e-06 -5.903700e-06))
18            	((-3.560949e-02 6.279624e-04 -3.439665e-05) (-1.927507e-02 2.454117e-04 -2.307219e-04)) ((5.309855e-08 -2.384563e-06 -4.138329e-05) (4.157496e-08 2.448677e-06 -5.058062e-06))
19            	((-2.812676e-02 6.258606e-04 -5.430124e-04) (-1.740688e-02 2.229070e-04 -2.121677e-04)) ((8.262102e-08 5.048795e-06 -3.177909e-05) (3.932366e-08 2.340694e-06 -4.538419e-06))
20            	((-1.330308e-02 2.990624e-04 -6.881598e-04) (-1.675985e-02 2.094371e-04 -1.898343e-04)) ((7.990624e-08 9.891861e-06 -1.682236e-05) (3.665115e-08 2.187671e-06 -4.347947e-06))
21            	((2.378438e-03 -1.512228e-04 -5.410951e-04) (-1.699098e-02 2.029308e-04 -1.703636e-04)) ((5.691718e-08 1.165391e-05 -2.326749e-06) (3.485426e-08 2.037640e-06 -4.397047e-06))
22            	((1.425594e-02 -5.608611e-04 -2.368795e-04) (-1.763016e-02 2.003254e-04 -1.572590e-04)) ((2.963292e-08 1.087594e-05 7.824815e-06) (3.428037e-08 1.914709e-06 -4.559748e-06))
23            	((2.020492e-02 -8.326617e-04 8.376152e-05) (-1.825002e-02 1.987278e-04 -1.507537e-04)) ((1.226050e-08 8.674414e-06 1.217113e-05) (3.451952e-08 1.815302e-06 -4.719115e-06))
24            	((2.044461e-02 -9.373735e-04 3.200716e-04) (-1.856641e-02 1.960551e-04 -1.491322e-04)) ((9.481569e-09 6.159039e-06 1.129010e-05) (3.489811e-08 1.724533e-06 -4.795847e-06))
25            	((1.671698e-02 -9.001187e-04 4.266723e-04) (-1.846966e-02 1.913241e-04 -1.503264e-04)) ((1.974449e-08 4.145724e-06 7.078904e-06) (3.502900e-08 1.638906e-06 -4.758127e-06))
26            	((1.125871e-02 -7.689879e-04 4.069088e-04) (-1.799783e-02 1.844237e-04 -1.527304e-04)) ((3.755218e-08 3.078653e-06 1.769311e-06) (3.492267e-08 1.569450e-06 -4.616823e-06))
27            	((6.125770e-03 -6.063575e-04 3.034502e-04) (-1.728311e-02 1.759429e-04 -1.553997e-04)) ((5.405731e-08 2.935524e-06 -2.787553e-06) (3.490059e-08 1.531946e-06 -4.409856e-06))
28            	((2.631818e-03 -4.609077e-04 1.708253e-04) (-1.648950e-02 1.668775e-04 -1.577643e-04)) ((6.227557e-08 3.414270e-06 -5.544950e-06) (3.530882e-08 1.534519e-06 -4.182781e-06))
29            	((1.155102e-03 -3.555680e-04 5.330645e-05) (-1.575432e-02 1.580982e-04 -1.594792e-04)) ((6.019471e-08 4.191226e-06 -6.254356e-06) (3.631703e-08 1.572443e-06 -3.974134e-06))
30            	((1.439259e-03 -2.973394e-04 -2.286780e-05) (-1.515939e-02 1.501592e-04 -1.604452e-04)) ((5.013880e-08 4.949039e-06 -5.353300e-06) (3.789044e-08 1.630675e-06 -3.807272e-06))
31            	((2.820605e-03 -2.825979e-04 -5.015369e-05) (-1.472700e-02 1.433190e-04 -1.605470e-04)) ((3.604758e-08 5.485989e-06 -3.616054e-06) (3.975105e-08 1.688397e-06 -3.687809e-06))
32            	((4.538012e-03 -2.974311e-04 -3.628658e-05) (-1.443141e-02 1.375815e-04 -1.596550e-04)) ((2.198078e-08 5.713834e-06 -1.782564e-06) (4.148077e-08 1.723552e-06 -3.607533e-06))
33            	((5.977980e-03 -3.248779e-04 -1.218229e-07) (-1.422085e-02 1.327479e-04 -1.575609e-04)) ((1.230980e-08 5.686924e-06 -4.006786e-07) (4.260403e-08 1.716971e-06 -3.551002e-06))
34            	((6.800472e-03 -3.511963e-04 3.962692e-05) (-1.403998e-02 1.285188e-04 -1.547302e-04)) ((8.717686e-09 5.497192e-06 2.677227e-07) (4.299533e-08 1.674184e-06 -3.502056e-06))
35            	((6.943055e-03 -3.664144e-04 6.880101e-05) (-1.384611e-02 1.245958e-04 -1.509389e-04)) ((1.087772e-08 5.247574e-06 2.415229e-07) (4.241838e-08 1.590196e-06 -3.448459e-06))
36            	((6.561538e-03 -3.687524e-04 8.180012e-05) (-1.361705e-02 1.207665e-04 -1.469860e-04)) ((1.636505e-08 5.000261e-06 -2.629853e-07) (4.122739e-08 1.490771e-06 -3.384192e-06))
37            	((5.896985e-03 -3.586438e-04 7.799621e-05) (-1.335042e-02 1.169393e-04 -1.446612e-04)) ((2.298144e-08 4.823318e-06 -9.642660e-07) (4.031650e-08 1.428642e-06 -3.308722e-06))
38            	((5.197218e-03 -3.398184e-04 6.217536e-05) (-1.305770e-02 1.130888e-04 -1.431533e-04)) ((2.843221e-08 4.732187e-06 -1.608371e-06) (3.958418e-08 1.389363e-06 -3.225788e-06))
39            	((4.640338e-03 -3.167445e-04 4.051300e-05) (-1.275698e-02 1.092523e-04 -1.428461e-04)) ((3.152023e-08 4.729681e-06 -2.031416e-06) (3.939534e-08 1.386731e-06 -3.140997e-06))
40            	((4.311524e-03 -2.934410e-04 1.866525e-05) (-1.246589e-02 1.054954e-04 -1.431554e-04)) ((3.223787e-08 4.800546e-06 -2.179518e-06) (3.964359e-08 1.407167e-06 -3.059677e-06))
41            	((4.200245e-03 -2.742094e-04 1.082707e-06) (-1.219643e-02 1.018998e-04 -1.437748e-04)) ((3.116460e-08 4.916016e-06 -2.090929e-06) (4.023659e-08 1.441912e-06 -2.985258e-06))
42            	((4.242714e-03 -2.602061e-04 -1.061829e-05) (-1.195328e-02 9.853448e-05 -1.436424e-04)) ((2.931609e-08 5.047140e-06 -1.855798e-06) (4.068528e-08 1.461204e-06 -2.918888e-06))
43            	((4.357920e-03 -2.514529e-04 -1.675282e-05) (-1.173511e-02 9.543009e-05 -1.425638e-04)) ((2.754993e-08 5.164780e-06 -1.588993e-06) (4.080694e-08 1.457474e-06 -2.859825e-06))
44            	((4.466676e-03 -2.471490e-04 -1.846229e-05) (-1.153664e-02 9.258817e-05 -1.401421e-04)) ((2.643381e-08 5.238210e-06 -1.378011e-06) (4.033344e-08 1.418857e-06 -2.806161e-06))
45            	((4.521819e-03 -2.454436e-04 -1.772832e-05) (-1.135120e-02 8.998134e-05 -1.370243e-04)) ((2.607606e-08 5.257548e-06 -1.265700e-06) (3.946724e-08 1.360977e-06 -2.755812e-06))
46            	((4.504081e-03 -2.449900e-04 -1.617247e-05) (-1.117284e-02 8.756938e-05 -1.336170e-04)) ((2.624884e-08 5.217903e-06 -1.263156e-06) (3.836827e-08 1.294423e-06 -2.707015e-06))
47            	((4.418718e-03 -2.434670e-04 -1.580758e-05) (-1.099736e-02 8.529891e-05 -1.307808e-04)) ((2.674783e-08 5.147246e-06 -1.336830e-06) (3.743400e-08 1.241889e-06 -2.658695e-06))
48            	((4.292437e-03 -2.410587e-04 -1.728985e-05) (-1.082294e-02 8.313017e-05 -1.286895e-04)) ((2.736989e-08 5.067551e-06 -1.444492e-06) (3.679338e-08 1.208765e-06 -2.610585e-06))
49            	((4.151151e-03 -2.363744e-04 -2.119258e-05) (-1.064982e-02 8.103420e-05 -1.275599e-04)) ((2.789893e-08 5.007972e-06 -1.544055e-06) (3.658886e-08 1.201384e-06 -2.562958e-06))
50            	((4.020511e-03 -2.302978e-04 -2.720812e-05) (-1.047946e-02 7.899448e-05 -1.269540e-04)) ((2.849339e-08 4.984942e-06 -1.608578e-06) (3.666351e-08 1.209102e-06 -2.516385e-06))
51            	((3.914229e-03 -2.233878e-04 -3.508073e-05) (-1.031382e-02 7.701779e-05 -1.265394e-04)) ((2.940209e-08 5.012652e-06 -1.629283e-06) (3.687527e-08 1.223577e-06 -2.471371e-06))
52            	((3.837819e-03 -2.169517e-04 -4.341002e-05) (-1.015454e-02 7.512291e-05 -1.256388e-04)) ((3.044325e-08 5.073231e-06 -1.610966e-06) (3.690720e-08 1.227309e-06 -2.428251e-06))
53            	((3.782831e-03 -2.107284e-04 -5.155857e-05) (-1.000249e-02 7.332026e-05 -1.240445e-04)) ((3.157534e-08 5.153467e-06 -1.570534e-06) (3.664065e-08 1.214540e-06 -2.387175e-06))
54            	((3.742804e-03 -2.057242e-04 -5.845782e-05) (-9.857776e-03 7.161103e-05 -1.215719e-04)) ((3.264277e-08 5.224979e-06 -1.526071e-06) (3.596913e-08 1.180012e-06 -2.348193e-06))
55            	((3.707250e-03 -2.020628e-04 -6.374677e-05) (-9.719926e-03 6.999679e-05 -1.186693e-04)) ((3.354098e-08 5.270027e-06 -1.496786e-06) (3.507813e-08 1.134737e-06 -2.311200e-06))
56            	((3.668987e-03 -1.998422e-04 -6.754992e-05) (-9.587987e-03 6.847237e-05 -1.156419e-04)) ((3.418375e-08 5.282568e-06 -1.496596e-06) (3.411043e-08 1.086225e-06 -2.275917e-06))
57            	((3.623917e-03 -1.974988e-04 -6.993340e-05) (-9.460885e-03 6.702428e-05 -1.130680e-04)) ((3.440512e-08 5.256457e-06 -1.498591e-06) (3.333712e-08 1.049100e-06 -2.242103e-06))
58            	((3.572020e-03 -1.949424e-04 -7.172048e-05) (-9.337698e-03 6.563613e-05 -1.110507e-04)) ((3.436884e-08 5.207919e-06 -1.507714e-06) (3.281779e-08 1.026017e-06 -2.209552e-06))
59            	((3.516529e-03 -1.922292e-04 -7.401043e-05) (-9.217883e-03 6.430328e-05 -1.097270e-04)) ((3.446809e-08 5.165165e-06 -1.514881e-06) (3.262146e-08 1.020574e-06 -2.178018e-06))
60            	((3.458288e-03 -1.890831e-04 -7.743206e-05) (-9.101128e-03 6.302341e-05 -1.087486e-04)) ((3.493306e-08 5.144070e-06 -1.516860e-06) (3.258666e-08 1.023976e-06 -2.147315e-06))
61            	((3.401818e-03 -1.859198e-04 -8.230708e-05) (-8.987368e-03 6.179670e-05 -1.078644e-04)) ((3.591904e-08 5.158405e-06 -1.510542e-06) (3.259948e-08 1.029845e-06 -2.117356e-06))
62            	((3.349212e-03 -1.825758e-04 -8.828220e-05) (-8.876810e-03 6.062369e-05 -1.065893e-04)) ((3.729090e-08 5.201416e-06 -1.497423e-06) (3.242915e-08 1.025793e-06 -2.088180e-06))
63            	((3.300293e-03 -1.790244e-04 -9.486135e-05) (-8.769648e-03 5.949737e-05 -1.048436e-04)) ((3.888048e-08 5.262517e-06 -1.480301e-06) (3.203289e-08 1.009779e-06 -2.059883e-06))
64            	((3.256821e-03 -1.759098e-04 -1.010456e-04) (-8.666079e-03 5.841351e-05 -1.025423e-04)) ((4.038722e-08 5.319111e-06 -1.464269e-06) (3.136641e-08 9.795336e-07 -2.032646e-06))
65            	((3.215394e-03 -1.731189e-04 -1.065604e-04) (-8.566108e-03 5.736887e-05 -1.000508e-04)) ((4.169798e-08 5.362360e-06 -1.453383e-06) (3.060126e-08 9.442916e-07 -2.006577e-06))
66            	((3.176995e-03 -1.707577e-04 -1.109341e-04) (-8.469574e-03 5.636095e-05 -9.757766e-05)) ((4.259623e-08 5.380658e-06 -1.446062e-06) (2.983566e-08 9.092123e-07 -1.981658e-06))
67            	((3.138812e-03 -1.684538e-04 -1.144742e-04) (-8.376199e-03 5.538921e-05 -9.552108e-05)) ((4.316425e-08 5.379709e-06 -1.438872e-06) (2.926023e-08 8.844364e-07 -1.957764e-06))
68            	((3.101629e-03 -1.660914e-04 -1.174512e-04) (-8.285641e-03 5.445162e-05 -9.389032e-05)) ((4.347145e-08 5.366019e-06 -1.427043e-06) (2.888027e-08 8.700826e-07 -1.934753e-06))
69            	((3.065267e-03 -1.636724e-04 -1.203228e-04) (-8.197671e-03 5.354938e-05 -9.275412e-05)) ((4.379048e-08 5.350414e-06 -1.411252e-06) (2.872965e-08 8.679284e-07 -1.912472e-06))
70            	((3.028742e-03 -1.610429e-04 -1.236988e-04) (-8.112057e-03 5.268160e-05 -9.177697e-05)) ((4.431942e-08 5.347220e-06 -1.390542e-06) (2.865168e-08 8.694211e-07 -1.890779e-06))
71            	((2.992358e-03 -1.582328e-04 -1.278852e-04) (-8.028628e-03 5.184657e-05 -9.081286e-05)) ((4.519250e-08 5.364613e-06 -1.364194e-06) (2.857538e-08 8.708491e-07 -1.869594e-06))
72            	((2.957020e-03 -1.551716e-04 -1.326896e-04) (-7.947366e-03 5.104011e-05 -8.950883e-05)) ((4.630761e-08 5.397819e-06 -1.334171e-06) (2.833070e-08 8.631724e-07 -1.848946e-06))
73            	((2.922574e-03 -1.520419e-04 -1.377984e-04) (-7.868324e-03 5.025591e-05 -8.790460e-05)) ((4.754168e-08 5.440022e-06 -1.302589e-06) (2.793572e-08 8.474598e-07 -1.828954e-06))
74            	((2.889644e-03 -1.490835e-04 -1.425914e-04) (-7.791545e-03 4.949110e-05 -8.595188e-05)) ((4.868552e-08 5.475823e-06 -1.273936e-06) (2.736596e-08 8.224282e-07 -1.809716e-06))
75            	((2.858915e-03 -1.465128e-04 -1.469201e-04) (-7.717079e-03 4.874570e-05 -8.398674e-05)) ((4.965259e-08 5.501999e-06 -1.251104e-06) (2.678274e-08 7.966296e-07 -1.791265e-06))
76            	((2.828772e-03 -1.441142e-04 -1.505625e-04) (-7.644827e-03 4.801993e-05 -8.209544e-05)) ((5.033776e-08 5.512094e-06 -1.232519e-06) (2.622962e-08 7.722671e-07 -1.773538e-06))
77            	((2.799202e-03 -1.416728e-04 -1.537384e-04) (-7.574577e-03 4.731270e-05 -8.059319e-05)) ((5.079905e-08 5.511522e-06 -1.214377e-06) (2.585410e-08 7.572973e-07 -1.756409e-06))
78            	((2.771285e-03 -1.392884e-04 -1.564725e-04) (-7.506202e-03 4.662497e-05 -7.938157e-05)) ((5.108734e-08 5.501919e-06 -1.195113e-06) (2.561102e-08 7.492135e-07 -1.739780e-06))
79            	((2.743360e-03 -1.367515e-04 -1.594236e-04) (-7.439556e-03 4.595720e-05 -7.852104e-05)) ((5.146797e-08 5.498360e-06 -1.172636e-06) (2.552931e-08 7.495715e-07 -1.723567e-06))
80            	((2.717024e-03 -1.341187e-04 -1.626289e-04) (-7.374542e-03 4.530942e-05 -7.768765e-05)) ((5.196182e-08 5.502897e-06 -1.144996e-06) (2.545557e-08 7.500872e-07 -1.707713e-06))
81            	((2.690611e-03 -1.312557e-04 -1.663304e-04) (-7.311111e-03 4.468034e-05 -7.684312e-05)) ((5.266837e-08 5.520895e-06 -1.113267e-06) (2.536886e-08 7.498341e-07 -1.692210e-06))
82            	((2.664521e-03 -1.282407e-04 -1.703134e-04) (-7.249200e-03 4.406483e-05 -7.570097e-05)) ((5.349464e-08 5.546926e-06 -1.079095e-06) (2.513369e-08 7.414632e-07 -1.677116e-06))
83            	((2.639370e-03 -1.253814e-04 -1.743001e-04) (-7.188851e-03 4.345998e-05 -7.440533e-05)) ((5.437620e-08 5.574489e-06 -1.048449e-06) (2.481622e-08 7.286786e-07 -1.662511e-06))
84            	((2.615072e-03 -1.228003e-04 -1.780776e-04) (-7.130104e-03 4.286531e-05 -7.287801e-05)) ((5.517868e-08 5.597970e-06 -1.023873e-06) (2.438531e-08 7.094936e-07 -1.648433e-06))
85            	((2.592283e-03 -1.204527e-04 -1.813909e-04) (-7.072970e-03 4.228263e-05 -7.144037e-05)) ((5.581656e-08 5.611515e-06 -1.002393e-06) (2.399374e-08 6.921082e-07 -1.634852e-06))
86            	((2.569797e-03 -1.181674e-04 -1.841645e-04) (-7.017371e-03 4.171328e-05 -7.008042e-05)) ((5.622830e-08 5.612635e-06 -9.831341e-07) (2.363698e-08 6.762268e-07 -1.621687e-06))
87            	((2.547091e-03 -1.157503e-04 -1.867110e-04) (-6.963120e-03 4.115508e-05 -6.906938e-05)) ((5.651534e-08 5.609004e-06 -9.623680e-07) (2.343854e-08 6.687412e-07 -1.608870e-06))
88            	((2.525304e-03 -1.133626e-04 -1.888946e-04) (-6.910105e-03 4.060760e-05 -6.823794e-05)) ((5.671267e-08 5.597903e-06 -9.403175e-07) (2.331750e-08 6.653078e-07 -1.596360e-06))
89            	((2.503833e-03 -1.108955e-04 -1.914261e-04) (-6.858270e-03 4.007148e-05 -6.763871e-05)) ((5.701936e-08 5.596569e-06 -9.171526e-07) (2.330824e-08 6.673179e-07 -1.584117e-06))
90            	((2.483441e-03 -1.084035e-04 -1.942207e-04) (-6.807586e-03 3.954704e-05 -6.696838e-05)) ((5.743489e-08 5.603625e-06 -8.919702e-07) (2.326327e-08 6.670472e-07 -1.572099e-06))
91            	((2.463177e-03 -1.058506e-04 -1.974206e-04) (-6.758041e-03 3.903425e-05 -6.629412e-05)) ((5.802583e-08 5.622166e-06 -8.648576e-07) (2.320527e-08 6.662443e-07 -1.560308e-06))
92            	((2.443715e-03 -1.034448e-04 -2.005810e-04) (-6.709629e-03 3.852945e-05 -6.536735e-05)) ((5.866934e-08 5.641483e-06 -8.393735e-07) (2.301975e-08 6.585398e-07 -1.548847e-06))
93            	((2.424656e-03 -1.011372e-04 -2.037541e-04) (-6.662381e-03 3.803123e-05 -6.438425e-05)) ((5.933490e-08 5.662288e-06 -8.168625e-07) (2.280051e-08 6.489603e-07 -1.537756e-06))
94            	((2.406018e-03 -9.895836e-05 -2.066379e-04) (-6.616286e-03 3.753951e-05 -6.324534e-05)) ((5.989291e-08 5.677091e-06 -7.971759e-07) (2.250488e-08 6.349840e-07 -1.527015e-06))
95            	((2.387877e-03 -9.692041e-05 -2.092283e-04) (-6.571311e-03 3.705555e-05 -6.226370e-05)) ((6.034004e-08 5.685999e-06 -7.787281e-07) (2.227675e-08 6.245980e-07 -1.516599e-06))
96            	((2.370172e-03 -9.487009e-05 -2.114495e-04) (-6.527397e-03 3.658004e-05 -6.134386e-05)) ((6.062562e-08 5.686789e-06 -7.599601e-07) (2.207492e-08 6.153654e-07 -1.506465e-06))
97            	((2.352823e-03 -9.282528e-05 -2.134251e-04) (-6.484463e-03 3.611221e-05 -6.072263e-05)) ((6.084361e-08 5.682581e-06 -7.415269e-07) (2.200678e-08 6.133446e-07 -1.496568e-06))
98            	((2.335841e-03 -9.079659e-05 -2.153429e-04) (-6.442432e-03 3.565233e-05 -6.016318e-05)) ((6.104547e-08 5.678152e-06 -7.228765e-07) (2.196834e-08 6.125057e-07 -1.486861e-06))
99            	((2.319150e-03 -8.872720e-05 -2.174914e-04) (-6.401248e-03 3.520108e-05 -5.978072e-05)) ((6.134393e-08 5.680897e-06 -7.025800e-07) (2.200909e-08 6.157953e-07 -1.477306e-06))
100           	((2.302819e-03 -8.659686e-05 -2.197307e-04) (-6.360888e-03 3.475821e-05 -5.927469e-05)) ((6.170811e-08 5.687287e-06 -6.799687e-07) (2.199063e-08 6.155583e-07 -1.467899e-06))
101           	((2.286865e-03 -8.439534e-05 -2.221982e-04) (-6.321357e-03 3.432167e-05 -5.877147e-05)) ((6.217475e-08 5.700705e-06 -6.556850e-07) (2.196712e-08 6.150356e-07 -1.458690e-06))
102           	((2.271424e-03 -8.232726e-05 -2.245268e-04) (-6.282681e-03 3.388991e-05 -5.804737e-05)) ((6.264390e-08 5.712250e-06 -6.325511e-07) (2.183682e-08 6.085419e-07 -1.449738e-06))
103           	((2.256337e-03 -8.044781e-05 -2.268603e-04) (-6.244871e-03 3.346314e-05 -5.733695e-05)) ((6.313076e-08 5.725208e-06 -6.127559e-07) (2.170897e-08 6.020627e-07 -1.441074e-06))
104           	((2.241501e-03 -7.872134e-05 -2.289580e-04) (-6.207909e-03 3.304178e-05 -5.650761e-05)) ((6.352799e-08 5.733414e-06 -5.958890e-07) (2.152720e-08 5.922222e-07 -1.432676e-06))
105           	((2.226934e-03 -7.709885e-05 -2.308857e-04) (-6.171754e-03 3.262739e-05 -5.585450e-05)) ((6.386028e-08 5.738518e-06 -5.798451e-07) (2.142469e-08 5.865522e-07 -1.424495e-06))
106           	((2.212751e-03 -7.556420e-05 -2.324889e-04) (-6.136360e-03 3.222010e-05 -5.522776e-05)) ((6.408007e-08 5.736645e-06 -5.655320e-07) (2.133480e-08 5.812319e-07 -1.416502e-06))
107           	((2.198874e-03 -7.404006e-05 -2.340400e-04) (-6.101683e-03 3.181919e-05 -5.484164e-05)) ((6.427955e-08 5.734711e-06 -5.512672e-07) (2.135538e-08 5.817497e-07 -1.408678e-06))
108           	((2.185233e-03 -7.246275e-05 -2.355478e-04) (-6.067674e-03 3.142492e-05 -5.444741e-05)) ((6.446253e-08 5.732928e-06 -5.353835e-07) (2.137351e-08 5.817721e-07 -1.400983e-06))
109           	((2.171809e-03 -7.079253e-05 -2.372124e-04) (-6.034301e-03 3.103702e-05 -5.419085e-05)) ((6.471224e-08 5.736359e-06 -5.168066e-07) (2.145145e-08 5.850237e-07 -1.393407e-06))
110           	((2.158683e-03 -6.904973e-05 -2.389415e-04) (-6.001557e-03 3.065444e-05 -5.379202e-05)) ((6.499423e-08 5.742654e-06 -4.955108e-07) (2.146155e-08 5.843744e-07 -1.385978e-06))
111           	((2.145875e-03 -6.742357e-05 -2.407093e-04) (-5.969453e-03 3.027642e-05 -5.342396e-05)) ((6.534208e-08 5.751152e-06 -4.760120e-07) (2.147956e-08 5.842504e-07 -1.378732e-06))
112           	((2.133339e-03 -6.591250e-05 -2.424131e-04) (-5.938000e-03 2.990242e-05 -5.286405e-05)) ((6.567331e-08 5.759225e-06 -4.591204e-07) (2.140953e-08 5.789855e-07 -1.371687e-06))
113           	((2.121019e-03 -6.453895e-05 -2.440737e-04) (-5.907198e-03 2.953312e-05 -5.236309e-05)) ((6.599591e-08 5.767367e-06 -4.442527e-07) (2.136607e-08 5.749855e-07 -1.364829e-06))
114           	((2.108874e-03 -6.326083e-05 -2.455115e-04) (-5.877027e-03 2.916985e-05 -5.176952e-05)) ((6.622841e-08 5.771001e-06 -4.305319e-07) (2.128155e-08 5.683831e-07 -1.358134e-06))
115           	((2.096959e-03 -6.200278e-05 -2.468417e-04) (-5.847458e-03 2.881240e-05 -5.135900e-05)) ((6.640642e-08 5.773073e-06 -4.160008e-07) (2.127884e-08 5.662118e-07 -1.351597e-06))
116           	((2.085288e-03 -6.086926e-05 -2.478989e-04) (-5.818457e-03 2.846066e-05 -5.094644e-05)) ((6.650917e-08 5.769359e-06 -4.034993e-07) (2.127471e-08 5.637596e-07 -1.345209e-06))
117           	((2.073793e-03 -6.023628e-05 -2.492742e-04) (-5.789985e-03 2.811764e-05 -5.073255e-05)) ((6.674256e-08 5.774809e-06 -4.032093e-07) (2.136106e-08 5.661557e-07 -1.338871e-06))
118           	((2.062458e-03 -5.870805e-05 -2.499962e-04) (-5.762007e-03 2.777940e-05 -5.045694e-05)) ((6.672906e-08 5.764764e-06 -3.796250e-07) (2.142205e-08 5.667682e-07 -1.332660e-06))
119           	((2.051432e-03 -5.705042e-05 -2.506407e-04) (-5.734507e-03 2.744089e-05 -5.028726e-05)) ((6.672783e-08 5.753918e-06 -3.518995e-07) (2.152984e-08 5.698770e-07 -1.326696e-06))
120           	((2.040596e-03 -5.548817e-05 -2.514067e-04) (-5.707501e-03 2.710527e-05 -4.997479e-05)) ((6.677853e-08 5.747235e-06 -3.258655e-07) (2.156760e-08 5.691515e-07 -1.320903e-06))
121           	((2.029936e-03 -5.426980e-05 -2.523675e-04) (-5.680993e-03 2.677432e-05 -4.972610e-05)) ((6.694324e-08 5.746549e-06 -3.076996e-07) (2.162513e-08 5.698602e-07 -1.315239e-06))
122           	((2.019461e-03 -5.339464e-05 -2.535449e-04) (-5.654994e-03 2.644939e-05 -4.931267e-05)) ((6.716307e-08 5.752379e-06 -2.974245e-07) (2.160827e-08 5.661805e-07 -1.309678e-06))
123           	((2.009166e-03 -5.276942e-05 -2.549028e-04) (-5.629509e-03 2.613185e-05 -4.897636e-05)) ((6.742701e-08 5.763769e-06 -2.927444e-07) (2.163031e-08 5.642869e-07 -1.304187e-06))
124           	((1.999054e-03 -5.226566e-05 -2.561742e-04) (-5.604523e-03 2.582219e-05 -4.854799e-05)) ((6.763719e-08 5.773889e-06 -2.904870e-07) (2.161452e-08 5.598706e-07 -1.298749e-06))
125           	((1.989130e-03 -5.171817e-05 -2.573992e-04) (-5.580011e-03 2.551850e-05 -4.828877e-05)) ((6.781060e-08 5.783729e-06 -2.864691e-07) (2.167548e-08 5.595977e-07 -1.293398e-06))
126           	((1.979295e-03 -5.120500e-05 -2.583034e-04) (-5.555935e-03 2.521880e-05 -4.799973e-05)) ((6.790872e-08 5.786159e-06 -2.834213e-07) (2.172102e-08 5.584006e-07 -1.288162e-06))
127           	((1.969702e-03 -5.068814e-05 -2.591634e-04) (-5.532259e-03 2.492166e-05 -4.788017e-05)) ((6.800651e-08 5.788520e-06 -2.792849e-07) (2.184185e-08 5.613671e-07 -1.283063e-06))
128           	((1.960226e-03 -5.012945e-05 -2.599521e-04) (-5.508972e-03 2.462719e-05 -4.767581e-05)) ((6.809222e-08 5.789734e-06 -2.733510e-07) (2.192348e-08 5.620164e-07 -1.278099e-06))
129           	((1.950843e-03 -4.949841e-05 -2.608243e-04) (-5.486058e-03 2.433604e-05 -4.757058e-05)) ((6.821908e-08 5.793825e-06 -2.649659e-07) (2.204630e-08 5.650410e-07 -1.273249e-06))
130           	((1.941567e-03 -4.881588e-05 -2.616819e-04) (-5.463521e-03 2.404705e-05 -4.731692e-05)) ((6.834273e-08 5.798282e-06 -2.543626e-07) (2.209983e-08 5.641307e-07 -1.268545e-06))
131           	((1.932447e-03 -4.818194e-05 -2.625678e-04) (-5.441370e-03 2.376011e-05 -4.713145e-05)) ((6.849785e-08 5.804180e-06 -2.445274e-07) (2.218048e-08 5.648129e-07 -1.263992e-06))
132           	((1.923529e-03 -4.763573e-05 -2.633230e-04) (-5.419615e-03 2.347580e-05 -4.680221e-05)) ((6.861834e-08 5.807407e-06 -2.364965e-07) (2.219696e-08 5.616861e-07 -1.259572e-06))
133           	((1.914728e-03 -4.715533e-05 -2.640610e-04) (-5.398256e-03 2.319457e-05 -4.657989e-05)) ((6.873308e-08 5.810875e-06 -2.298452e-07) (2.226188e-08 5.611467e-07 -1.255268e-06))
134           	((1.906045e-03 -4.669983e-05 -2.646747e-04) (-5.377279e-03 2.291717e-05 -4.627727e-05)) ((6.878987e-08 5.811828e-06 -2.234649e-07) (2.229118e-08 5.584164e-07 -1.251051e-06))
135           	((1.897486e-03 -4.620539e-05 -2.652996e-04) (-5.356665e-03 2.264278e-05 -4.613945e-05)) ((6.883803e-08 5.813688e-06 -2.156782e-07) (2.239273e-08 5.597443e-07 -1.246934e-06))
136           	((1.889044e-03 -4.578907e-05 -2.657748e-04) (-5.336391e-03 2.237037e-05 -4.594630e-05)) ((6.885484e-08 5.812327e-06 -2.095076e-07) (2.246794e-08 5.595183e-07 -1.242932e-06))
137           	((1.880702e-03 -4.540841e-05 -2.663526e-04) (-5.316437e-03 2.209982e-05 -4.589674e-05)) ((6.891183e-08 5.814145e-06 -2.039640e-07) (2.260688e-08 5.628132e-07 -1.239038e-06))
138           	((1.872456e-03 -4.503200e-05 -2.669376e-04) (-5.296794e-03 2.183146e-05 -4.573717e-05)) ((6.897145e-08 5.816688e-06 -1.982287e-07) (2.269765e-08 5.631639e-07 -1.235237e-06))
139           	((1.864330e-03 -4.462535e-05 -2.676337e-04) (-5.277459e-03 2.156554e-05 -4.566823e-05)) ((6.907496e-08 5.822607e-06 -1.913256e-07) (2.282761e-08 5.656876e-07 -1.231522e-06))
140           	((1.856328e-03 -4.416387e-05 -2.683035e-04) (-5.258439e-03 2.130109e-05 -4.545815e-05)) ((6.916279e-08 5.828396e-06 -1.826479e-07) (2.289237e-08 5.644752e-07 -1.227917e-06))
141           	((1.848426e-03 -4.378980e-05 -2.689085e-04) (-5.239735e-03 2.103718e-05 -4.533608e-05)) ((6.926651e-08 5.833084e-06 -1.759605e-07) (2.299287e-08 5.653708e-07 -1.224446e-06))
142           	((1.840608e-03 -4.349995e-05 -2.694401e-04) (-5.221344e-03 2.077349e-05 -4.508997e-05)) ((6.933840e-08 5.836441e-06 -1.712391e-07) (2.303789e-08 5.629672e-07 -1.221112e-06))
143           	((1.832881e-03 -4.325275e-05 -2.699805e-04) (-5.203259e-03 2.051070e-05 -4.495756e-05)) ((6.940937e-08 5.840568e-06 -1.674142e-07) (2.313601e-08 5.633262e-07 -1.217893e-06))
144           	((1.825264e-03 -4.300287e-05 -2.704077e-04) (-5.185471e-03 2.024969e-05 -4.474185e-05)) ((6.942877e-08 5.842361e-06 -1.633097e-07) (2.319774e-08 5.614227e-07 -1.214758e-06))
145           	((1.817755e-03 -4.267731e-05 -2.708635e-04) (-5.167969e-03 1.998977e-05 -4.467844e-05)) ((6.944598e-08 5.845433e-06 -1.571091e-07) (2.332612e-08 5.632641e-07 -1.211717e-06))
146           	((1.810325e-03 -4.240333e-05 -2.711003e-04) (-5.150735e-03 1.973035e-05 -4.454584e-05)) ((6.942611e-08 5.843462e-06 -1.521541e-07) (2.342041e-08 5.632018e-07 -1.208774e-06))
147           	((1.802961e-03 -4.215743e-05 -2.714908e-04) (-5.133755e-03 1.947108e-05 -4.454516e-05)) ((6.945091e-08 5.845965e-06 -1.478661e-07) (2.357161e-08 5.663650e-07 -1.205930e-06))
148           	((1.795672e-03 -4.192676e-05 -2.719108e-04) (-5.117024e-03 1.921245e-05 -4.442055e-05)) ((6.947765e-08 5.849761e-06 -1.439086e-07) (2.366999e-08 5.662281e-07 -1.203166e-06))
149           	((1.788380e-03 -4.452397e-05 -2.739914e-04) (-5.100554e-03 1.897527e-05 -4.437664e-05)) ((7.023379e-08 5.896262e-06 -2.117910e-07) (2.380516e-08 5.680122e-07 -1.199960e-06))
150           	((1.781290e-03 -4.167254e-05 -2.723042e-04) (-5.084307e-03 1.873268e-05 -4.420996e-05)) ((6.951810e-08 5.847566e-06 -1.413562e-07) (2.388179e-08 5.665205e-07 -1.196979e-06))
151           	((1.774239e-03 -3.794597e-05 -2.693237e-04) (-5.068238e-03 1.844505e-05 -4.412664e-05)) ((6.849649e-08 5.766509e-06 -4.892766e-08) (2.399985e-08 5.670119e-07 -1.195196e-06))
152           	((1.767292e-03 -3.536045e-05 -2.670340e-04) (-5.052395e-03 1.814043e-05 -4.398061e-05)) ((6.774080e-08 5.703603e-06 1.473219e-08) (2.407310e-08 5.657544e-07 -1.193920e-06))
153           	((1.760426e-03 -3.426702e-05 -2.662338e-04) (-5.036799e-03 1.784124e-05 -4.400914e-05)) ((6.745103e-08 5.679147e-06 4.065129e-08) (2.420796e-08 5.688007e-07 -1.192595e-06))
154           	((1.753589e-03 -3.432319e-05 -2.666024e-04) (-5.021489e-03 1.755731e-05 -4.392763e-05)) ((6.749577e-08 5.684936e-06 3.743720e-08) (2.430129e-08 5.688939e-07 -1.190977e-06))
155           	((1.746809e-03 -3.511758e-05 -2.676389e-04) (-5.006482e-03 1.729240e-05 -4.394294e-05)) ((6.776458e-08 5.708237e-06 1.544267e-08) (2.444965e-08 5.713085e-07 -1.188965e-06))
156           	((1.740186e-03 -3.615227e-05 -2.688163e-04) (-4.991763e-03 1.704238e-05 -4.383038e-05)) ((6.807168e-08 5.735719e-06 -1.259910e-08) (2.455211e-08 5.703147e-07 -1.186659e-06))
157           	((1.733618e-03 -3.704974e-05 -2.699016e-04) (-4.977306e-03 1.680130e-05 -4.381174e-05)) ((6.836093e-08 5.761360e-06 -3.718758e-08) (2.470231e-08 5.715728e-07 -1.184202e-06))