# Region type : patch ent
# Faces  :    212
# Area   :    1.250000e-07
# Time        	areaAverage(p)
0             	0.000000e+00
1             	4.992221e+04
2             	4.337844e+04
3             	2.440838e+04
4             	4.847621e+03
5             	-9.594113e+03
6             	-1.612073e+04
7             	-1.606192e+04
8             	-1.175075e+04
9             	-5.653971e+03
10            	-5.093933e+01
11            	3.738523e+03
12            	5.282697e+03
13            	4.921596e+03
14            	3.395454e+03
15            	1.512437e+03
16            	-9.101585e+01
17            	-1.065602e+03
18            	-1.347715e+03
19            	-1.089907e+03
20            	-5.357693e+02
21            	6.012393e+01
22            	5.186516e+02
23            	7.557337e+02
24            	7.732371e+02
25            	6.364921e+02
26            	4.292635e+02
27            	2.307048e+02
28            	9.273914e+01
29            	3.179057e+01
30            	3.966974e+01
31            	9.045733e+01
32            	1.557596e+02
33            	2.114354e+02
34            	2.436754e+02
35            	2.498666e+02
36            	2.354660e+02
37            	2.097747e+02
38            	1.824861e+02
39            	1.607912e+02
40            	1.482115e+02
41            	1.440288e+02
42            	1.460822e+02
43            	1.510409e+02
44            	1.558183e+02
45            	1.583355e+02
46            	1.579310e+02
47            	1.549448e+02
48            	1.502970e+02
49            	1.451281e+02
50            	1.404207e+02
51            	1.367618e+02
52            	1.341484e+02
53            	1.324780e+02
54            	1.314200e+02
55            	1.304319e+02
56            	1.293152e+02
57            	1.278833e+02
58            	1.261535e+02
59            	1.242579e+02
60            	1.223253e+02
61            	1.204675e+02
62            	1.187582e+02
63            	1.172141e+02
64            	1.158144e+02
65            	1.145133e+02
66            	1.132735e+02
67            	1.120862e+02
68            	1.108553e+02
69            	1.096155e+02
70            	1.083902e+02
71            	1.071819e+02
72            	1.060171e+02
73            	1.048941e+02
74            	1.038104e+02
75            	1.027678e+02
76            	1.017607e+02
77            	1.007817e+02
78            	9.982556e+01
79            	9.889107e+01
80            	9.796908e+01
81            	9.706732e+01
82            	9.618565e+01
83            	9.532480e+01
84            	9.448528e+01
85            	9.366669e+01
86            	9.286820e+01
87            	9.208869e+01
88            	9.132756e+01
89            	9.058251e+01
90            	8.985311e+01
91            	8.913942e+01
92            	8.844082e+01
93            	8.775677e+01
94            	8.708687e+01
95            	8.643074e+01
96            	8.578806e+01
97            	8.515848e+01
98            	8.454127e+01
99            	8.393732e+01
100           	8.334985e+01
101           	8.277135e+01
102           	8.220225e+01
103           	8.164256e+01
104           	8.109313e+01
105           	8.055384e+01
106           	8.002508e+01
107           	7.950680e+01
108           	7.899914e+01
109           	7.850068e+01
110           	7.801157e+01
111           	7.753064e+01
112           	7.705768e+01
113           	7.659664e+01
114           	7.614158e+01
115           	7.569295e+01
116           	7.525087e+01
117           	7.481548e+01
118           	7.438757e+01
119           	7.396876e+01
120           	7.355630e+01
121           	7.315109e+01
122           	7.275362e+01
123           	7.236336e+01
124           	7.198497e+01
125           	7.160054e+01
126           	7.122877e+01
127           	7.085969e+01
128           	7.049388e+01
129           	7.013334e+01
130           	6.977795e+01
131           	6.942944e+01
132           	6.908912e+01
133           	6.875589e+01
134           	6.842721e+01
135           	6.810279e+01
136           	6.778450e+01
137           	6.746934e+01
138           	6.715700e+01
139           	6.684967e+01
140           	6.654985e+01
141           	6.625425e+01
142           	6.596092e+01
143           	6.566989e+01
144           	6.538121e+01
145           	6.508849e+01
146           	6.481257e+01
147           	6.453707e+01
148           	6.426722e+01
149           	6.400621e+01
150           	6.374897e+01
151           	6.349397e+01
152           	6.324057e+01
153           	6.298927e+01
154           	6.273953e+01
155           	6.249240e+01
156           	6.224835e+01
157           	6.200811e+01
158           	6.177179e+01
159           	6.153916e+01
160           	6.131046e+01
161           	6.108238e+01
162           	6.086097e+01
163           	6.064185e+01
164           	6.042468e+01
165           	6.020945e+01
166           	5.999642e+01
167           	5.978560e+01
168           	5.957748e+01
169           	5.936972e+01
170           	5.916837e+01
171           	5.896972e+01
172           	5.877127e+01
173           	5.857846e+01
174           	5.838587e+01
175           	5.819565e+01
176           	5.800975e+01
177           	5.782507e+01
178           	5.764139e+01
179           	5.745924e+01
180           	5.727897e+01
181           	5.709864e+01
182           	5.692201e+01
183           	5.674911e+01
184           	5.657913e+01
185           	5.641179e+01
186           	5.624676e+01
187           	5.608314e+01
188           	5.592106e+01
189           	5.575744e+01
190           	5.560241e+01
191           	5.543930e+01
192           	5.528016e+01
193           	5.512758e+01
194           	5.497596e+01
195           	5.482166e+01
196           	5.467090e+01
197           	5.452504e+01
198           	5.437903e+01
199           	5.423655e+01
200           	5.409415e+01
201           	5.394918e+01
202           	5.380903e+01
203           	5.366906e+01
204           	5.353080e+01
205           	5.339413e+01
206           	5.325807e+01
207           	5.312319e+01
208           	5.298868e+01
209           	5.285638e+01
210           	5.272671e+01
211           	5.259941e+01
212           	5.247359e+01
213           	5.234974e+01
214           	5.222691e+01
215           	5.210471e+01
216           	5.198299e+01
217           	5.186183e+01
218           	5.174147e+01
219           	5.162229e+01
220           	5.150449e+01
221           	5.138823e+01
222           	5.127324e+01
223           	5.115965e+01
224           	5.104729e+01
225           	5.093603e+01
226           	5.082576e+01
227           	5.071688e+01
228           	5.060900e+01
229           	5.050215e+01
230           	5.039615e+01
231           	5.029103e+01
232           	5.018690e+01
233           	5.008362e+01
234           	4.998149e+01
235           	4.988049e+01
236           	4.978055e+01
237           	4.968160e+01
238           	4.958366e+01
239           	4.948689e+01
240           	4.939113e+01
241           	4.929642e+01
242           	4.920246e+01
243           	4.910929e+01
244           	4.901670e+01
245           	4.892497e+01
246           	4.883413e+01
247           	4.874421e+01
248           	4.865521e+01
249           	4.856716e+01
250           	4.847994e+01
251           	4.839354e+01
252           	4.830864e+01
253           	4.822442e+01
254           	4.814122e+01
255           	4.805843e+01
256           	4.797590e+01
257           	4.789417e+01
258           	4.781307e+01
259           	4.773291e+01
260           	4.765366e+01
261           	4.757525e+01
262           	4.749760e+01
263           	4.742068e+01
264           	4.734450e+01
265           	4.726965e+01
266           	4.719529e+01
267           	4.712154e+01
268           	4.704814e+01
269           	4.697518e+01
270           	4.690284e+01
271           	4.683125e+01
272           	4.676042e+01
273           	4.669033e+01
274           	4.662095e+01
275           	4.655227e+01
276           	4.648432e+01
277           	4.641680e+01
278           	4.635012e+01
279           	4.628434e+01
280           	4.621910e+01
281           	4.615434e+01
282           	4.609002e+01
283           	4.602615e+01
284           	4.596281e+01
285           	4.590005e+01
286           	4.583793e+01
287           	4.577655e+01
288           	4.571562e+01
289           	4.565527e+01
290           	4.559529e+01
291           	4.553631e+01
292           	4.547842e+01
293           	4.542084e+01
294           	4.536306e+01
295           	4.530591e+01
296           	4.524952e+01
297           	4.519385e+01
298           	4.513891e+01
299           	4.508436e+01
300           	4.503033e+01
301           	4.497668e+01
302           	4.492353e+01
303           	4.487083e+01
304           	4.481870e+01
305           	4.476743e+01
306           	4.471665e+01
307           	4.466627e+01
308           	4.461629e+01
309           	4.456668e+01
310           	4.451736e+01
311           	4.446857e+01
312           	4.442029e+01
313           	4.437249e+01
314           	4.432516e+01
315           	4.427827e+01
316           	4.423181e+01
317           	4.418541e+01
318           	4.414023e+01
319           	4.409581e+01
320           	4.405192e+01
321           	4.400815e+01
322           	4.396462e+01
323           	4.392130e+01
324           	4.387823e+01
325           	4.383549e+01
326           	4.379314e+01
327           	4.375074e+01
328           	4.370898e+01
329           	4.366808e+01
330           	4.362850e+01
331           	4.358941e+01
332           	4.355050e+01
333           	4.351147e+01
334           	4.347223e+01
335           	4.343313e+01
336           	4.339446e+01
337           	4.335533e+01
338           	4.331692e+01
339           	4.327912e+01
340           	4.324234e+01
341           	4.320637e+01
342           	4.317106e+01
343           	4.313611e+01
344           	4.310186e+01
345           	4.306801e+01
346           	4.303360e+01
347           	4.299954e+01
348           	4.296552e+01
349           	4.293164e+01
350           	4.289793e+01
351           	4.286457e+01
352           	4.283262e+01
353           	4.280133e+01
354           	4.277036e+01
355           	4.273978e+01
356           	4.270957e+01
357           	4.268000e+01
358           	4.265070e+01
359           	4.262201e+01
360           	4.259316e+01
361           	4.256424e+01
362           	4.253540e+01
363           	4.250783e+01
364           	4.247913e+01
365           	4.245182e+01
366           	4.242444e+01
367           	4.239702e+01
368           	4.236965e+01
369           	4.234246e+01
370           	4.231576e+01
371           	4.228944e+01
372           	4.226375e+01
373           	4.223798e+01
374           	4.221216e+01
375           	4.218638e+01
376           	4.216043e+01
377           	4.213457e+01
378           	4.210869e+01
379           	4.208319e+01
380           	4.205885e+01
381           	4.203502e+01
382           	4.201171e+01
383           	4.198910e+01
384           	4.196680e+01
385           	4.194442e+01
386           	4.192275e+01
387           	4.190077e+01
388           	4.187887e+01
389           	4.185718e+01
390           	4.183593e+01
391           	4.181522e+01
392           	4.179510e+01
393           	4.177553e+01
394           	4.175645e+01
395           	4.173794e+01
396           	4.172009e+01
397           	4.170245e+01
398           	4.168475e+01
399           	4.166711e+01
400           	4.164955e+01
401           	4.163208e+01
402           	4.161479e+01
403           	4.159768e+01
404           	4.158077e+01
405           	4.156410e+01
406           	4.154767e+01
407           	4.153145e+01
408           	4.151569e+01
409           	4.150032e+01
410           	4.148505e+01
411           	4.146982e+01
412           	4.145453e+01
413           	4.143917e+01
414           	4.142380e+01
415           	4.140849e+01
416           	4.139331e+01
417           	4.137832e+01
418           	4.136356e+01
419           	4.134907e+01
420           	4.133455e+01
421           	4.132050e+01
422           	4.130693e+01
423           	4.129335e+01
424           	4.127972e+01
425           	4.126600e+01
426           	4.125221e+01
427           	4.123779e+01
428           	4.122402e+01
429           	4.121081e+01
430           	4.119801e+01
431           	4.118521e+01
432           	4.117253e+01
433           	4.115988e+01
434           	4.114733e+01
435           	4.113520e+01
436           	4.112311e+01
437           	4.111100e+01
438           	4.109886e+01
439           	4.108698e+01
440           	4.107507e+01
441           	4.106289e+01
442           	4.105108e+01
443           	4.103941e+01
444           	4.102784e+01
445           	4.101631e+01
446           	4.100478e+01
447           	4.099310e+01
448           	4.098202e+01
449           	4.097107e+01
450           	4.096031e+01
451           	4.094939e+01
452           	4.093837e+01
453           	4.092702e+01
454           	4.091563e+01
455           	4.090423e+01
456           	4.089285e+01
457           	4.088150e+01
458           	4.087020e+01
459           	4.085888e+01
460           	4.084785e+01
461           	4.083734e+01
462           	4.082680e+01
463           	4.081632e+01
464           	4.080547e+01
465           	4.079452e+01
466           	4.078348e+01
467           	4.077240e+01
468           	4.076132e+01
469           	4.075030e+01
470           	4.073939e+01
471           	4.072859e+01
472           	4.071788e+01
473           	4.070746e+01
474           	4.069758e+01
475           	4.068745e+01
476           	4.067726e+01
477           	4.066698e+01
478           	4.065653e+01
479           	4.064596e+01
480           	4.063536e+01
481           	4.062478e+01
482           	4.061430e+01
483           	4.060389e+01
484           	4.059359e+01
485           	4.058347e+01
486           	4.057334e+01
487           	4.056370e+01
488           	4.055414e+01
489           	4.054435e+01
490           	4.053427e+01
491           	4.052395e+01
492           	4.051347e+01
493           	4.050296e+01
494           	4.049250e+01
495           	4.048217e+01
496           	4.047202e+01
497           	4.046176e+01
498           	4.045157e+01
499           	4.044153e+01
500           	4.043184e+01
501           	4.042195e+01
502           	4.041188e+01
503           	4.040165e+01
504           	4.039081e+01
505           	4.038017e+01
506           	4.036980e+01
507           	4.035967e+01
508           	4.034945e+01
509           	4.033929e+01
510           	4.032909e+01
511           	4.031901e+01
512           	4.030859e+01
513           	4.029858e+01
514           	4.028867e+01
515           	4.027868e+01
516           	4.026860e+01
517           	4.025850e+01
518           	4.024843e+01
519           	4.023813e+01
520           	4.022787e+01
521           	4.021767e+01
522           	4.020767e+01
523           	4.019757e+01
524           	4.018737e+01
525           	4.017715e+01
526           	4.016729e+01
527           	4.015766e+01
528           	4.014806e+01
529           	4.013850e+01
530           	4.012866e+01
531           	4.011882e+01
532           	4.010889e+01
533           	4.009895e+01
534           	4.008902e+01
535           	4.007913e+01
536           	4.006929e+01
537           	4.005951e+01
538           	4.004985e+01
539           	4.004077e+01
540           	4.003197e+01
541           	4.002290e+01
542           	4.001372e+01
543           	4.000452e+01
544           	3.999494e+01
545           	3.998551e+01
546           	3.997610e+01
547           	3.996675e+01
548           	3.995759e+01
549           	3.994899e+01
550           	3.994031e+01
551           	3.993181e+01
552           	3.992348e+01
553           	3.991506e+01
554           	3.990659e+01
555           	3.989800e+01
556           	3.988933e+01
557           	3.988057e+01
558           	3.987201e+01
559           	3.986358e+01
560           	3.985550e+01
561           	3.984739e+01
562           	3.983934e+01
563           	3.983109e+01
564           	3.982304e+01
565           	3.981542e+01
566           	3.980782e+01
567           	3.980012e+01
568           	3.979222e+01
569           	3.978427e+01
570           	3.977632e+01
571           	3.976841e+01
572           	3.976061e+01
573           	3.975297e+01
574           	3.974524e+01
575           	3.973763e+01
576           	3.973006e+01
577           	3.972260e+01
578           	3.971554e+01
579           	3.970847e+01
580           	3.970126e+01
581           	3.969390e+01
582           	3.968640e+01
583           	3.967886e+01
584           	3.967141e+01
585           	3.966383e+01
586           	3.965639e+01
587           	3.964891e+01
588           	3.964169e+01
589           	3.963443e+01
590           	3.962729e+01
591           	3.962059e+01
592           	3.961389e+01
593           	3.960707e+01
594           	3.960012e+01
595           	3.959314e+01
596           	3.958593e+01
597           	3.957878e+01
598           	3.957169e+01
599           	3.956471e+01
600           	3.955782e+01
601           	3.955101e+01
602           	3.954425e+01
603           	3.953769e+01
604           	3.953160e+01
605           	3.952557e+01
606           	3.951951e+01
607           	3.951315e+01
608           	3.950674e+01
609           	3.949999e+01
610           	3.949370e+01
611           	3.948746e+01
612           	3.948126e+01
613           	3.947487e+01
614           	3.946892e+01
615           	3.946300e+01
616           	3.945736e+01
617           	3.945224e+01
618           	3.944695e+01
619           	3.944161e+01
620           	3.943615e+01
621           	3.943056e+01
622           	3.942489e+01
623           	3.941921e+01
624           	3.941359e+01
625           	3.940809e+01
626           	3.940274e+01
627           	3.939754e+01
628           	3.939250e+01
629           	3.938751e+01
630           	3.938305e+01
631           	3.937865e+01
632           	3.937412e+01
633           	3.936945e+01
634           	3.936461e+01
635           	3.935967e+01
636           	3.935474e+01
637           	3.934989e+01
638           	3.934515e+01
639           	3.934067e+01
640           	3.933615e+01
641           	3.933178e+01
642           	3.932762e+01
643           	3.932395e+01
644           	3.932023e+01
645           	3.931639e+01
646           	3.931239e+01
647           	3.930825e+01
648           	3.930407e+01
649           	3.929995e+01
650           	3.929601e+01
651           	3.929202e+01
652           	3.928821e+01
653           	3.928452e+01
654           	3.928092e+01
655           	3.927742e+01
656           	3.927434e+01
657           	3.927126e+01
658           	3.926806e+01
659           	3.926477e+01
660           	3.926141e+01
661           	3.925811e+01
662           	3.925466e+01
663           	3.925135e+01
664           	3.924820e+01
665           	3.924514e+01
666           	3.924213e+01
667           	3.923920e+01
668           	3.923640e+01
669           	3.923403e+01
670           	3.923169e+01
671           	3.922930e+01
672           	3.922689e+01
673           	3.922422e+01
674           	3.922156e+01
675           	3.921895e+01
676           	3.921638e+01
677           	3.921393e+01
678           	3.921155e+01
679           	3.920923e+01
680           	3.920696e+01
681           	3.920492e+01
682           	3.920338e+01
683           	3.920188e+01
684           	3.920011e+01
685           	3.919831e+01
686           	3.919645e+01
687           	3.919451e+01
688           	3.919253e+01
689           	3.919057e+01
690           	3.918868e+01
691           	3.918690e+01
692           	3.918524e+01
693           	3.918366e+01
694           	3.918241e+01
695           	3.918146e+01
696           	3.918058e+01
697           	3.917962e+01
698           	3.917850e+01
699           	3.917724e+01
700           	3.917589e+01
701           	3.917454e+01
702           	3.917329e+01
703           	3.917217e+01
704           	3.917120e+01
705           	3.917045e+01
706           	3.916961e+01
707           	3.916903e+01
708           	3.916898e+01
709           	3.916895e+01
710           	3.916880e+01
711           	3.916851e+01
712           	3.916815e+01
713           	3.916774e+01
714           	3.916736e+01
715           	3.916710e+01
716           	3.916703e+01
717           	3.916693e+01
718           	3.916703e+01
719           	3.916727e+01
720           	3.916765e+01
721           	3.916847e+01
722           	3.916929e+01
723           	3.916999e+01
724           	3.917055e+01
725           	3.917095e+01
726           	3.917134e+01
727           	3.917185e+01
728           	3.917228e+01
729           	3.917289e+01
730           	3.917376e+01
731           	3.917466e+01
732           	3.917536e+01
733           	3.917631e+01
734           	3.917750e+01
735           	3.917871e+01
736           	3.918003e+01
737           	3.918122e+01
738           	3.918230e+01
739           	3.918311e+01
740           	3.918396e+01
741           	3.918484e+01
742           	3.918576e+01
743           	3.918674e+01
744           	3.918775e+01
745           	3.918876e+01
746           	3.918997e+01
747           	3.919165e+01
748           	3.919327e+01
749           	3.919487e+01
750           	3.919611e+01
751           	3.919722e+01
752           	3.919822e+01
753           	3.919915e+01
754           	3.920008e+01
755           	3.920104e+01
756           	3.920201e+01
757           	3.920299e+01
758           	3.920381e+01
759           	3.920498e+01
760           	3.920690e+01
761           	3.920819e+01
762           	3.920956e+01
763           	3.921051e+01
764           	3.921125e+01
765           	3.921182e+01
766           	3.921231e+01
767           	3.921278e+01
768           	3.921326e+01
769           	3.921382e+01
770           	3.921439e+01
771           	3.921501e+01
772           	3.921560e+01
773           	3.921656e+01
774           	3.921731e+01
775           	3.921788e+01
776           	3.921810e+01
777           	3.921803e+01
778           	3.921768e+01
779           	3.921693e+01
780           	3.921653e+01
781           	3.921593e+01
782           	3.921576e+01
783           	3.921537e+01
784           	3.921470e+01
785           	3.921419e+01
786           	3.921404e+01
787           	3.921372e+01
788           	3.921315e+01
789           	3.921230e+01
790           	3.921119e+01
791           	3.920948e+01
792           	3.920829e+01
793           	3.920711e+01
794           	3.920566e+01
795           	3.920420e+01
796           	3.920265e+01
797           	3.920098e+01
798           	3.919922e+01
799           	3.919785e+01
800           	3.919651e+01
801           	3.919492e+01
802           	3.919298e+01
803           	3.919108e+01
804           	3.918896e+01
805           	3.918660e+01
806           	3.918426e+01
807           	3.918193e+01
808           	3.917955e+01
809           	3.917709e+01
810           	3.917453e+01
811           	3.917202e+01
812           	3.916984e+01
813           	3.916755e+01
814           	3.916506e+01
815           	3.916242e+01
816           	3.915938e+01
817           	3.915619e+01
818           	3.915292e+01
819           	3.914961e+01
820           	3.914623e+01
821           	3.914282e+01
822           	3.913937e+01
823           	3.913583e+01
824           	3.913239e+01
825           	3.912929e+01
826           	3.912615e+01
827           	3.912258e+01
828           	3.911880e+01
829           	3.911480e+01
830           	3.911055e+01
831           	3.910616e+01
832           	3.910168e+01
833           	3.909716e+01
834           	3.909264e+01
835           	3.908812e+01
836           	3.908357e+01
837           	3.907919e+01
838           	3.907499e+01
839           	3.907071e+01
840           	3.906620e+01
841           	3.906140e+01
842           	3.905632e+01
843           	3.905089e+01
844           	3.904538e+01
845           	3.903985e+01
846           	3.903433e+01
847           	3.902883e+01
848           	3.902339e+01
849           	3.901769e+01
850           	3.901207e+01
851           	3.900677e+01
852           	3.900132e+01
853           	3.899557e+01
854           	3.898946e+01
855           	3.898310e+01
856           	3.897657e+01
857           	3.896994e+01
858           	3.896328e+01
859           	3.895669e+01
860           	3.894991e+01
861           	3.894316e+01
862           	3.893636e+01
863           	3.892957e+01
864           	3.892310e+01
865           	3.891648e+01
866           	3.890963e+01
867           	3.890253e+01
868           	3.889525e+01
869           	3.888787e+01
870           	3.888049e+01
871           	3.887291e+01
872           	3.886540e+01
873           	3.885793e+01
874           	3.885045e+01
875           	3.884289e+01
876           	3.883539e+01
877           	3.882828e+01
878           	3.882114e+01
879           	3.881384e+01
880           	3.880638e+01
881           	3.879887e+01
882           	3.879105e+01
883           	3.878321e+01
884           	3.877541e+01
885           	3.876761e+01
886           	3.875983e+01
887           	3.875206e+01
888           	3.874428e+01
889           	3.873665e+01
890           	3.872947e+01
891           	3.872229e+01
892           	3.871506e+01
893           	3.870748e+01
894           	3.869982e+01
895           	3.869208e+01
896           	3.868428e+01
897           	3.867649e+01
898           	3.866873e+01
899           	3.866106e+01
900           	3.865346e+01
901           	3.864593e+01
902           	3.863865e+01
903           	3.863192e+01
904           	3.862499e+01
905           	3.861800e+01
906           	3.861100e+01
907           	3.860381e+01
908           	3.859644e+01
909           	3.858901e+01
910           	3.858159e+01
911           	3.857429e+01
912           	3.856713e+01
913           	3.856015e+01
914           	3.855336e+01
915           	3.854664e+01
916           	3.854047e+01
917           	3.853430e+01
918           	3.852801e+01
919           	3.852155e+01
920           	3.851493e+01
921           	3.850822e+01
922           	3.850153e+01
923           	3.849491e+01
924           	3.848843e+01
925           	3.848216e+01
926           	3.847584e+01
927           	3.846965e+01
928           	3.846364e+01
929           	3.845808e+01
930           	3.845249e+01
931           	3.844683e+01
932           	3.844097e+01
933           	3.843495e+01
934           	3.842885e+01
935           	3.842276e+01
936           	3.841682e+01
937           	3.841081e+01
938           	3.840497e+01
939           	3.839928e+01
940           	3.839363e+01
941           	3.838808e+01
942           	3.838295e+01
943           	3.837779e+01
944           	3.837255e+01
945           	3.836712e+01
946           	3.836168e+01
947           	3.835627e+01
948           	3.835064e+01
949           	3.834508e+01
950           	3.833960e+01
951           	3.833418e+01
952           	3.832879e+01
953           	3.832343e+01
954           	3.831825e+01
955           	3.831354e+01
956           	3.830885e+01
957           	3.830410e+01
958           	3.829930e+01
959           	3.829418e+01
960           	3.828903e+01
961           	3.828387e+01
962           	3.827872e+01
963           	3.827362e+01
964           	3.826858e+01
965           	3.826362e+01
966           	3.825872e+01
967           	3.825406e+01
968           	3.824987e+01
969           	3.824573e+01
970           	3.824128e+01
971           	3.823674e+01
972           	3.823208e+01
973           	3.822730e+01
974           	3.822245e+01
975           	3.821761e+01
976           	3.821282e+01
977           	3.820811e+01
978           	3.820348e+01
979           	3.819892e+01
980           	3.819466e+01
981           	3.819064e+01
982           	3.818663e+01
983           	3.818247e+01
984           	3.817811e+01
985           	3.817355e+01
986           	3.816888e+01
987           	3.816416e+01
988           	3.815948e+01
989           	3.815488e+01
990           	3.815040e+01
991           	3.814608e+01
992           	3.814161e+01
993           	3.813735e+01
994           	3.813353e+01
995           	3.812966e+01
996           	3.812561e+01
997           	3.812135e+01
998           	3.811694e+01
999           	3.811244e+01
1000          	3.810793e+01
1001          	3.810342e+01
1002          	3.809910e+01
1003          	3.809471e+01
1004          	3.809045e+01
1005          	3.808624e+01
1006          	3.808210e+01
1007          	3.807838e+01
1008          	3.807461e+01
1009          	3.807068e+01
1010          	3.806656e+01
1011          	3.806231e+01
1012          	3.805797e+01
1013          	3.805368e+01
1014          	3.804920e+01
1015          	3.804483e+01
1016          	3.804052e+01
1017          	3.803624e+01
1018          	3.803193e+01
1019          	3.802767e+01
1020          	3.802384e+01
1021          	3.802001e+01
1022          	3.801603e+01
1023          	3.801189e+01
1024          	3.800768e+01
1025          	3.800317e+01
1026          	3.799866e+01
1027          	3.799417e+01
1028          	3.798968e+01
1029          	3.798520e+01
1030          	3.798072e+01
1031          	3.797635e+01
1032          	3.797204e+01
1033          	3.796810e+01
1034          	3.796403e+01
1035          	3.795991e+01
1036          	3.795545e+01
1037          	3.795092e+01
1038          	3.794631e+01
1039          	3.794162e+01
1040          	3.793688e+01
1041          	3.793208e+01
1042          	3.792731e+01
1043          	3.792257e+01
1044          	3.791783e+01
1045          	3.791328e+01
1046          	3.790922e+01
1047          	3.790495e+01
1048          	3.790054e+01
1049          	3.789595e+01
1050          	3.789117e+01
1051          	3.788623e+01
1052          	3.788120e+01
1053          	3.787615e+01
1054          	3.787115e+01
1055          	3.786623e+01
1056          	3.786141e+01
1057          	3.785672e+01
1058          	3.785202e+01
1059          	3.784781e+01
1060          	3.784362e+01
1061          	3.783925e+01
1062          	3.783466e+01
1063          	3.782989e+01
1064          	3.782500e+01
1065          	3.782007e+01
1066          	3.781519e+01