# Residuals   
# Time        	p             	Ux            	Uy            	Uz            
0             	N/A	N/A
1             	1.000000e+00	1.000000e+00	1.000000e+00	1.000000e+00
2             	3.040895e-02	5.298542e-01	4.054091e-01	4.143409e-01
3             	4.984637e-02	2.008587e-01	1.899116e-01	1.608492e-01
4             	7.022790e-02	9.546302e-02	1.446474e-01	5.292672e-01
5             	2.006910e-01	4.354657e-02	1.284078e-01	5.298336e-01
6             	1.198085e-01	5.871351e-02	1.324568e-01	3.858955e-01
7             	7.123810e-02	9.922036e-02	1.355952e-01	2.425584e-01
8             	5.895079e-02	1.220208e-01	1.301412e-01	1.394942e-01
9             	6.119407e-02	1.115999e-01	1.233445e-01	2.455450e-01
10            	8.108377e-02	6.806898e-02	1.058810e-01	3.906740e-01
11            	1.461727e-01	3.852263e-02	8.826585e-02	3.753635e-01
12            	7.576652e-02	4.848203e-02	7.656224e-02	2.797395e-01
13            	5.701751e-02	5.563172e-02	6.188846e-02	1.692015e-01
14            	5.337759e-02	4.735193e-02	4.657833e-02	9.416027e-02
15            	5.845243e-02	3.218588e-02	3.761006e-02	1.576872e-01
16            	7.418583e-02	1.871213e-02	3.125288e-02	2.066601e-01
17            	1.019470e-01	1.317536e-02	2.685753e-02	1.908008e-01
18            	8.404395e-02	1.548276e-02	2.360142e-02	1.398696e-01
19            	7.665183e-02	1.754853e-02	1.942841e-02	8.105491e-02
20            	7.868605e-02	1.541838e-02	1.557200e-02	5.842195e-02
21            	8.784191e-02	1.080679e-02	1.384732e-02	8.474319e-02
22            	9.952316e-02	8.673908e-03	1.346591e-02	9.694833e-02
23            	8.489087e-02	1.025600e-02	1.338183e-02	8.624192e-02
24            	7.699640e-02	1.149819e-02	1.239919e-02	6.303810e-02
25            	7.418633e-02	1.125382e-02	1.092026e-02	4.245584e-02
26            	7.498427e-02	9.986405e-03	9.831839e-03	4.229864e-02
27            	7.833760e-02	8.380069e-03	8.993048e-03	5.056297e-02
28            	8.267322e-02	6.974721e-03	8.049618e-03	5.168474e-02
29            	8.615722e-02	6.053565e-03	7.054424e-03	4.575827e-02
30            	8.756888e-02	5.543662e-03	6.175627e-03	3.740677e-02
31            	8.648235e-02	5.278556e-03	5.630878e-03	3.164177e-02
32            	8.358016e-02	5.275799e-03	5.538199e-03	3.128056e-02
33            	7.990321e-02	5.457749e-03	5.649283e-03	3.273391e-02
34            	7.636980e-02	5.612144e-03	5.622896e-03	3.145507e-02
35            	7.348619e-02	5.674651e-03	5.513388e-03	2.912507e-02
36            	7.139319e-02	5.593816e-03	5.329691e-03	2.692398e-02
37            	6.997190e-02	5.393330e-03	5.124075e-03	2.608396e-02
38            	6.900736e-02	5.128582e-03	4.914733e-03	2.608159e-02
39            	6.821727e-02	4.857428e-03	4.697457e-03	2.574954e-02
40            	6.734364e-02	4.622981e-03	4.488027e-03	2.487459e-02
41            	6.623734e-02	4.441383e-03	4.304505e-03	2.374452e-02
42            	6.485421e-02	4.312145e-03	4.159632e-03	2.271893e-02
43            	6.325348e-02	4.222741e-03	4.049794e-03	2.196547e-02
44            	6.154209e-02	4.156616e-03	3.961243e-03	2.138875e-02
45            	5.981483e-02	4.097954e-03	3.880091e-03	2.084096e-02
46            	5.815713e-02	4.033748e-03	3.797818e-03	2.027938e-02
47            	5.660964e-02	3.958256e-03	3.712083e-03	1.974525e-02
48            	5.517296e-02	3.871914e-03	3.624035e-03	1.926672e-02
49            	5.383112e-02	3.780232e-03	3.539095e-03	1.885067e-02
50            	5.255257e-02	3.686518e-03	3.449909e-03	1.839679e-02
51            	5.130736e-02	3.597709e-03	3.366425e-03	1.793750e-02
52            	5.007242e-02	3.516801e-03	3.289057e-03	1.747947e-02
53            	4.884006e-02	3.469979e-03	3.279575e-03	1.760522e-02
54            	4.760723e-02	3.381039e-03	3.155894e-03	1.669143e-02
55            	4.639014e-02	3.319973e-03	3.091499e-03	1.622904e-02
56            	4.519299e-02	3.263735e-03	3.033725e-03	1.584337e-02
57            	4.402641e-02	3.209594e-03	2.978778e-03	1.548250e-02
58            	4.290337e-02	3.155884e-03	2.925503e-03	1.513766e-02
59            	4.182006e-02	3.102846e-03	2.873943e-03	1.480602e-02
60            	4.077541e-02	3.050691e-03	2.824153e-03	1.448894e-02
61            	3.976853e-02	3.001072e-03	2.780628e-03	1.421554e-02
62            	3.878936e-02	2.951498e-03	2.731299e-03	1.389924e-02
63            	3.784328e-02	2.904376e-03	2.686712e-03	1.360770e-02
64            	3.692440e-02	2.859716e-03	2.644844e-03	1.333057e-02
65            	3.603225e-02	2.817198e-03	2.604286e-03	1.306039e-02
66            	3.516667e-02	2.776580e-03	2.565849e-03	1.280282e-02
67            	3.432915e-02	2.737579e-03	2.529105e-03	1.255638e-02
68            	3.351860e-02	2.700427e-03	2.494689e-03	1.232970e-02
69            	3.273735e-02	2.663939e-03	2.460276e-03	1.210261e-02
70            	3.198282e-02	2.628469e-03	2.427653e-03	1.188166e-02
71            	3.125644e-02	2.595966e-03	2.402021e-03	1.171769e-02
72            	3.055361e-02	2.561672e-03	2.366648e-03	1.148002e-02
73            	2.987528e-02	2.529166e-03	2.336600e-03	1.127510e-02
74            	2.921978e-02	2.498421e-03	2.308879e-03	1.109153e-02
75            	2.858778e-02	2.468391e-03	2.281113e-03	1.090982e-02
76            	2.797641e-02	2.439242e-03	2.254667e-03	1.072955e-02
77            	2.738775e-02	2.411224e-03	2.229272e-03	1.056127e-02
78            	2.681725e-02	2.384161e-03	2.204774e-03	1.039837e-02
79            	2.626707e-02	2.357880e-03	2.180918e-03	1.023814e-02
80            	2.573495e-02	2.332369e-03	2.157954e-03	1.008438e-02
81            	2.522318e-02	2.308484e-03	2.138877e-03	9.960767e-03
82            	2.472598e-02	2.284007e-03	2.115262e-03	9.803933e-03
83            	2.424740e-02	2.261716e-03	2.096827e-03	9.688149e-03
84            	2.378398e-02	2.238804e-03	2.076026e-03	9.559900e-03
85            	2.333442e-02	2.216053e-03	2.055133e-03	9.411024e-03
86            	2.289909e-02	2.194462e-03	2.035479e-03	9.275962e-03
87            	2.247868e-02	2.173631e-03	2.016848e-03	9.152601e-03
88            	2.207126e-02	2.153403e-03	1.998914e-03	9.033201e-03
89            	2.167727e-02	2.133711e-03	1.981498e-03	8.919087e-03
90            	2.129529e-02	2.114554e-03	1.964636e-03	8.808930e-03
91            	2.092794e-02	2.096760e-03	1.951239e-03	8.727084e-03
92            	2.056817e-02	2.078161e-03	1.933328e-03	8.612009e-03
93            	2.022142e-02	2.060798e-03	1.918572e-03	8.517826e-03
94            	1.988306e-02	2.043435e-03	1.902914e-03	8.419748e-03
95            	1.955452e-02	2.026121e-03	1.887551e-03	8.316439e-03
96            	1.923573e-02	2.009572e-03	1.872716e-03	8.220836e-03
97            	1.892787e-02	1.993538e-03	1.858639e-03	8.131393e-03
98            	1.862855e-02	1.977879e-03	1.845043e-03	8.045927e-03
99            	1.833741e-02	1.962603e-03	1.831665e-03	7.962642e-03
100           	1.805410e-02	1.947651e-03	1.818436e-03	7.877560e-03
101           	1.778038e-02	1.933809e-03	1.808119e-03	7.815853e-03
102           	1.751158e-02	1.919217e-03	1.794050e-03	7.727827e-03
103           	1.725156e-02	1.905446e-03	1.782336e-03	7.656323e-03
104           	1.699797e-02	1.891916e-03	1.770453e-03	7.586106e-03
105           	1.675090e-02	1.878243e-03	1.758427e-03	7.510685e-03
106           	1.651003e-02	1.865246e-03	1.746940e-03	7.442198e-03
107           	1.627634e-02	1.852388e-03	1.735266e-03	7.370418e-03
108           	1.604758e-02	1.839735e-03	1.724173e-03	7.299956e-03
109           	1.582862e-02	1.847880e-03	1.780186e-03	7.734647e-03
110           	1.561201e-02	1.816654e-03	1.705592e-03	7.199256e-03
111           	1.540052e-02	1.804182e-03	1.693331e-03	7.119861e-03
112           	1.519382e-02	1.792432e-03	1.682924e-03	7.055903e-03
113           	1.499293e-02	1.781113e-03	1.672851e-03	6.997442e-03
114           	1.479584e-02	1.770141e-03	1.663011e-03	6.939327e-03
115           	1.460595e-02	1.760624e-03	1.655531e-03	6.902200e-03
116           	1.441832e-02	1.748991e-03	1.644368e-03	6.836230e-03
117           	1.423357e-02	1.738175e-03	1.635136e-03	6.777258e-03
118           	1.405562e-02	1.727991e-03	1.625878e-03	6.724459e-03
119           	1.388225e-02	1.717892e-03	1.616708e-03	6.673658e-03
120           	1.371118e-02	1.707851e-03	1.607872e-03	6.621722e-03
121           	1.354374e-02	1.698066e-03	1.598820e-03	6.568121e-03
122           	1.338215e-02	1.689516e-03	1.593350e-03	6.542413e-03
123           	1.322170e-02	1.679512e-03	1.582659e-03	6.479278e-03
124           	1.306721e-02	1.671791e-03	1.577341e-03	6.458207e-03
125           	1.291514e-02	1.662313e-03	1.568419e-03	6.421513e-03
126           	1.276586e-02	1.652194e-03	1.558349e-03	6.350306e-03
127           	1.261800e-02	1.643161e-03	1.549684e-03	6.298628e-03
128           	1.247493e-02	1.634725e-03	1.542015e-03	6.258124e-03
129           	1.233353e-02	1.626086e-03	1.533554e-03	6.210554e-03
130           	1.219815e-02	1.620765e-03	1.536297e-03	6.242209e-03
131           	1.206246e-02	1.609866e-03	1.519415e-03	6.138192e-03
132           	1.192981e-02	1.601181e-03	1.510905e-03	6.086541e-03
133           	1.179999e-02	1.593079e-03	1.503470e-03	6.046957e-03
134           	1.167291e-02	1.585165e-03	1.495928e-03	6.008511e-03
135           	1.155072e-02	1.581026e-03	1.495864e-03	6.032434e-03
136           	1.142949e-02	1.571171e-03	1.484338e-03	5.956154e-03
137           	1.130976e-02	1.562169e-03	1.474948e-03	5.901842e-03
138           	1.119156e-02	1.555731e-03	1.471054e-03	5.885515e-03
139           	1.107517e-02	1.547598e-03	1.461140e-03	5.831569e-03
140           	1.096181e-02	1.539896e-03	1.453567e-03	5.788900e-03
141           	1.084924e-02	1.532738e-03	1.446980e-03	5.754805e-03
142           	1.074026e-02	1.525512e-03	1.439645e-03	5.716225e-03
143           	1.063228e-02	1.518339e-03	1.432591e-03	5.678378e-03
144           	1.052961e-02	1.514783e-03	1.432370e-03	5.702580e-03
145           	1.042626e-02	1.550502e-03	1.502529e-03	7.464136e-03
146           	1.032868e-02	1.502346e-03	1.422855e-03	5.695714e-03
147           	1.022834e-02	1.492494e-03	1.409357e-03	5.582773e-03
148           	1.012875e-02	1.485000e-03	1.401226e-03	5.535215e-03
149           	1.003071e-02	1.478133e-03	1.394495e-03	5.495108e-03
150           	9.935103e-03	1.471554e-03	1.387699e-03	5.458942e-03
151           	9.841123e-03	1.465369e-03	1.381846e-03	5.429157e-03
152           	9.748975e-03	1.458899e-03	1.375032e-03	5.393230e-03
153           	9.658389e-03	1.452228e-03	1.368854e-03	5.362276e-03
154           	9.572094e-03	1.447547e-03	1.367207e-03	5.364880e-03
155           	9.483675e-03	1.440449e-03	1.357718e-03	5.315069e-03
156           	9.396790e-03	1.433972e-03	1.351012e-03	5.276932e-03
157           	9.311389e-03	1.428004e-03	1.344870e-03	5.246278e-03
158           	9.228374e-03	1.421700e-03	1.338688e-03	5.214229e-03
159           	9.145944e-03	1.415651e-03	1.332462e-03	5.183337e-03
160           	9.065914e-03	1.409794e-03	1.326615e-03	5.154600e-03
161           	8.987002e-03	1.403881e-03	1.320931e-03	5.128055e-03
162           	8.911187e-03	1.400177e-03	1.320800e-03	5.140983e-03
163           	8.833107e-03	1.393278e-03	1.310679e-03	5.087132e-03
164           	8.756320e-03	1.386792e-03	1.304026e-03	5.046954e-03
165           	8.681029e-03	1.381143e-03	1.298371e-03	5.018384e-03
166           	8.608126e-03	1.375513e-03	1.292444e-03	4.990296e-03
167           	8.536158e-03	1.369819e-03	1.286719e-03	4.962349e-03
168           	8.466213e-03	1.364343e-03	1.281238e-03	4.937528e-03
169           	8.397400e-03	1.360557e-03	1.278965e-03	4.937279e-03
170           	8.330456e-03	1.356272e-03	1.276678e-03	4.940254e-03
171           	8.260866e-03	1.348876e-03	1.266569e-03	4.876334e-03
172           	8.192249e-03	1.342939e-03	1.259972e-03	4.837082e-03
173           	8.125349e-03	1.337638e-03	1.254663e-03	4.811677e-03
174           	8.060510e-03	1.332333e-03	1.248994e-03	4.784777e-03
175           	7.996620e-03	1.327000e-03	1.243648e-03	4.759891e-03
176           	7.933418e-03	1.321840e-03	1.238376e-03	4.735673e-03
177           	7.871042e-03	1.316637e-03	1.232930e-03	4.708258e-03
178           	7.811067e-03	1.313252e-03	1.232581e-03	4.715574e-03
179           	7.750455e-03	1.307572e-03	1.224593e-03	4.676088e-03
180           	7.689478e-03	1.301976e-03	1.218120e-03	4.643620e-03
181           	7.629404e-03	1.296630e-03	1.213105e-03	4.616466e-03
182           	7.571987e-03	1.291617e-03	1.207724e-03	4.592575e-03
183           	7.514194e-03	1.286575e-03	1.202510e-03	4.568100e-03
184           	7.461822e-03	1.287938e-03	1.208789e-03	4.634265e-03
185           	7.408296e-03	1.307600e-03	1.296715e-03	4.886176e-03
186           	7.356308e-03	1.274278e-03	1.193880e-03	4.539937e-03
187           	7.301118e-03	1.268085e-03	1.184338e-03	4.487035e-03
188           	7.246494e-03	1.262601e-03	1.178246e-03	4.455794e-03
189           	7.193001e-03	1.257879e-03	1.173545e-03	4.433563e-03
190           	7.139889e-03	1.253126e-03	1.168460e-03	4.410753e-03
191           	7.087939e-03	1.248244e-03	1.163232e-03	4.383670e-03
192           	7.036995e-03	1.243533e-03	1.158258e-03	4.359331e-03
193           	6.987374e-03	1.241620e-03	1.158113e-03	4.373234e-03
194           	6.940014e-03	1.237747e-03	1.156279e-03	4.385910e-03
195           	6.890304e-03	1.230573e-03	1.146215e-03	4.314524e-03
196           	6.840832e-03	1.225399e-03	1.140371e-03	4.279695e-03
197           	6.790904e-03	1.221208e-03	1.136361e-03	4.263401e-03
198           	6.744537e-03	1.216500e-03	1.130776e-03	4.235511e-03
199           	6.697711e-03	1.211595e-03	1.125864e-03	4.207174e-03
200           	6.652603e-03	1.207098e-03	1.121150e-03	4.184410e-03
201           	6.606849e-03	1.202667e-03	1.116653e-03	4.162516e-03
202           	6.564186e-03	1.200028e-03	1.117163e-03	4.174020e-03
203           	6.519461e-03	1.194604e-03	1.109176e-03	4.133912e-03
204           	6.476003e-03	1.191242e-03	1.106730e-03	4.126961e-03
205           	6.431843e-03	1.186416e-03	1.100918e-03	4.100928e-03
206           	6.388570e-03	1.181174e-03	1.095556e-03	4.066546e-03
207           	6.345701e-03	1.176666e-03	1.090708e-03	4.040134e-03
208           	6.304753e-03	1.172350e-03	1.086293e-03	4.019354e-03
209           	6.263372e-03	1.168084e-03	1.082025e-03	3.998276e-03
210           	6.225092e-03	1.165687e-03	1.082931e-03	4.011890e-03
211           	6.183446e-03	1.160439e-03	1.075116e-03	3.972240e-03
212           	6.146827e-03	1.182905e-03	1.117175e-03	4.303813e-03
213           	6.107281e-03	1.157965e-03	1.075924e-03	4.098612e-03
214           	6.071167e-03	1.148294e-03	1.063084e-03	3.925862e-03
215           	6.032041e-03	1.143453e-03	1.058081e-03	3.889585e-03
216           	5.993131e-03	1.139328e-03	1.053784e-03	3.867376e-03
217           	5.955234e-03	1.135237e-03	1.049978e-03	3.849668e-03
218           	5.919195e-03	1.132930e-03	1.050863e-03	3.862150e-03
219           	5.881349e-03	1.127703e-03	1.042818e-03	3.819565e-03
220           	5.843542e-03	1.123156e-03	1.037928e-03	3.790796e-03
221           	5.805992e-03	1.120470e-03	1.036351e-03	3.789309e-03
222           	5.770808e-03	1.116012e-03	1.030767e-03	3.765473e-03
223           	5.735681e-03	1.111233e-03	1.026558e-03	3.737454e-03
224           	5.701368e-03	1.107300e-03	1.022459e-03	3.717587e-03
225           	5.666164e-03	1.103438e-03	1.018705e-03	3.700433e-03
226           	5.634005e-03	1.101301e-03	1.019665e-03	3.710536e-03
227           	5.598991e-03	1.096303e-03	1.012087e-03	3.671472e-03
228           	5.564505e-03	1.091933e-03	1.007508e-03	3.645600e-03
229           	5.532232e-03	1.091929e-03	1.010460e-03	3.678766e-03
230           	5.501190e-03	1.357703e-03	1.466255e-03	1.230420e-02
231           	5.483048e-03	1.094434e-03	1.013138e-03	3.892869e-03
232           	5.455539e-03	1.081126e-03	1.000843e-03	3.655495e-03
233           	5.422012e-03	1.075212e-03	9.936908e-04	3.604970e-03
234           	5.390009e-03	1.073188e-03	9.937637e-04	3.615817e-03
235           	5.359015e-03	1.068121e-03	9.859078e-04	3.572496e-03
236           	5.328499e-03	1.063710e-03	9.811912e-04	3.539828e-03
237           	5.297871e-03	1.059889e-03	9.775205e-04	3.518076e-03
238           	5.268267e-03	1.056030e-03	9.735896e-04	3.497980e-03
239           	5.236810e-03	1.052117e-03	9.698237e-04	3.478179e-03
240           	5.206438e-03	1.048301e-03	9.659623e-04	3.457399e-03
241           	5.175302e-03	1.044657e-03	9.623599e-04	3.439492e-03
242           	5.146745e-03	1.042956e-03	9.638821e-04	3.453484e-03
243           	5.115867e-03	1.038276e-03	9.567036e-04	3.417171e-03
244           	5.085661e-03	1.034221e-03	9.524653e-04	3.393845e-03
245           	5.056321e-03	1.030829e-03	9.494369e-04	3.379936e-03
246           	5.027631e-03	1.027426e-03	9.459183e-04	3.364124e-03
247           	4.999238e-03	1.023721e-03	9.422186e-04	3.344864e-03
248           	4.971293e-03	1.020351e-03	9.388596e-04	3.328377e-03
249           	4.942482e-03	1.017020e-03	9.356728e-04	3.312190e-03
250           	4.916744e-03	1.015386e-03	9.374095e-04	3.328108e-03
251           	4.889371e-03	1.011245e-03	9.310215e-04	3.297416e-03
252           	4.861671e-03	1.007369e-03	9.267945e-04	3.277186e-03
253           	4.834043e-03	1.003811e-03	9.238430e-04	3.261569e-03
254           	4.808287e-03	1.000391e-03	9.200047e-04	3.242837e-03
255           	4.781668e-03	9.969852e-04	9.165535e-04	3.225377e-03
256           	4.756268e-03	9.936731e-04	9.133924e-04	3.210660e-03
257           	4.730088e-03	9.904576e-04	9.102999e-04	3.196366e-03
258           	4.707968e-03	9.905221e-04	9.146813e-04	3.229403e-03
259           	4.682009e-03	9.858399e-04	9.068111e-04	3.196466e-03
260           	4.656049e-03	9.812882e-04	9.025396e-04	3.167899e-03
261           	4.630155e-03	9.780895e-04	8.991624e-04	3.149295e-03
262           	4.605738e-03	9.748999e-04	8.957432e-04	3.133465e-03
263           	4.581060e-03	9.715973e-04	8.925692e-04	3.117747e-03
264           	4.557555e-03	9.684609e-04	8.895617e-04	3.104802e-03
265           	4.533410e-03	9.654134e-04	8.866589e-04	3.091829e-03
266           	4.512179e-03	9.643143e-04	8.889407e-04	3.111705e-03
267           	4.487456e-03	9.601476e-04	8.824305e-04	3.080663e-03
268           	4.464711e-03	9.570841e-04	8.795399e-04	3.065664e-03
269           	4.439943e-03	9.540883e-04	8.762214e-04	3.051964e-03
270           	4.416738e-03	9.506137e-04	8.730147e-04	3.034864e-03
271           	4.397573e-03	9.761378e-04	9.156363e-04	3.361899e-03
272           	4.377492e-03	9.472710e-04	8.707818e-04	3.048798e-03
273           	4.359642e-03	9.421512e-04	8.657999e-04	3.013984e-03
274           	4.338381e-03	9.409763e-04	8.674467e-04	3.025010e-03
275           	4.314158e-03	9.368187e-04	8.606102e-04	2.989908e-03
276           	4.290625e-03	9.333293e-04	8.568959e-04	2.969656e-03
277           	4.267199e-03	9.304601e-04	8.543205e-04	2.957413e-03
278           	4.245474e-03	9.275726e-04	8.513227e-04	2.945980e-03
279           	4.223789e-03	9.246004e-04	8.485272e-04	2.933296e-03
280           	4.203643e-03	9.249623e-04	8.509715e-04	2.966347e-03
281           	4.183038e-03	9.208424e-04	8.457722e-04	2.948298e-03
282           	4.164186e-03	9.184614e-04	8.466669e-04	2.940819e-03
283           	4.141492e-03	9.143712e-04	8.397850e-04	2.903455e-03
284           	4.118927e-03	9.113696e-04	8.367887e-04	2.889865e-03
285           	4.097596e-03	9.085929e-04	8.339928e-04	2.877883e-03
286           	4.077787e-03	9.055573e-04	8.311768e-04	2.864219e-03
287           	4.058286e-03	9.027592e-04	8.285415e-04	2.854237e-03
288           	4.038810e-03	9.001149e-04	8.261149e-04	2.845353e-03
289           	4.019083e-03	8.973889e-04	8.234757e-04	2.833716e-03
290           	4.000955e-03	8.967209e-04	8.259589e-04	2.852805e-03
291           	3.980736e-03	8.929064e-04	8.198786e-04	2.824332e-03
292           	3.960610e-03	8.897306e-04	8.166762e-04	2.807880e-03
293           	3.941689e-03	8.879440e-04	8.157960e-04	2.808402e-03
294           	3.923224e-03	8.852492e-04	8.126145e-04	2.799399e-03
295           	3.903485e-03	8.820553e-04	8.100594e-04	2.785765e-03
296           	3.885821e-03	8.796847e-04	8.076379e-04	2.775937e-03
297           	3.870151e-03	8.785569e-04	8.069102e-04	2.784832e-03
298           	3.852966e-03	8.767789e-04	8.082268e-04	2.788052e-03
299           	3.833318e-03	8.728178e-04	8.019568e-04	2.759230e-03
300           	3.814090e-03	8.697028e-04	7.988694e-04	2.743270e-03
301           	3.795761e-03	8.673052e-04	7.969223e-04	2.736941e-03
302           	3.777721e-03	8.648052e-04	7.945574e-04	2.729443e-03
303           	3.760925e-03	8.626661e-04	7.928662e-04	2.723878e-03
304           	3.743209e-03	8.601843e-04	7.900090e-04	2.714241e-03
305           	3.725095e-03	8.573488e-04	7.878107e-04	2.702599e-03
306           	3.709541e-03	8.568996e-04	7.905661e-04	2.724000e-03
307           	3.691848e-03	8.533388e-04	7.847510e-04	2.697696e-03
308           	3.678495e-03	8.997909e-04	8.625635e-04	3.267346e-03
309           	3.664111e-03	8.512163e-04	7.837209e-04	2.725866e-03
310           	3.654179e-03	8.463485e-04	7.790846e-04	2.687650e-03
311           	3.636559e-03	8.436078e-04	7.760446e-04	2.668924e-03
312           	3.618023e-03	8.412452e-04	7.738985e-04	2.659520e-03
313           	3.600600e-03	8.388712e-04	7.718373e-04	2.653564e-03
314           	3.585254e-03	8.385382e-04	7.748426e-04	2.676106e-03
315           	3.568391e-03	8.350977e-04	7.693187e-04	2.652796e-03
316           	3.550927e-03	8.322691e-04	7.666529e-04	2.639710e-03
317           	3.532613e-03	8.303590e-04	7.652565e-04	2.635703e-03
318           	3.517761e-03	8.281251e-04	7.628703e-04	2.627806e-03
319           	3.502882e-03	8.254901e-04	7.607822e-04	2.618195e-03
320           	3.487213e-03	8.231960e-04	7.586321e-04	2.610523e-03
321           	3.471697e-03	8.210098e-04	7.568009e-04	2.605330e-03
322           	3.458611e-03	8.208095e-04	7.601193e-04	2.630752e-03
323           	3.441327e-03	8.178384e-04	7.553121e-04	2.611940e-03
324           	3.427327e-03	8.155034e-04	7.529710e-04	2.604487e-03
325           	3.411658e-03	8.128807e-04	7.506970e-04	2.590360e-03
326           	3.396340e-03	8.104941e-04	7.483694e-04	2.582467e-03
327           	3.380699e-03	8.082478e-04	7.465192e-04	2.576325e-03
328           	3.366681e-03	8.061563e-04	7.447231e-04	2.571014e-03
329           	3.352492e-03	8.039824e-04	7.431741e-04	2.568067e-03
330           	3.341017e-03	8.056050e-04	7.491330e-04	2.613329e-03
331           	3.325759e-03	8.017320e-04	7.422520e-04	2.585448e-03
332           	3.310778e-03	7.981008e-04	7.389953e-04	2.561764e-03
333           	3.295308e-03	7.960354e-04	7.371546e-04	2.553730e-03
334           	3.281657e-03	7.939208e-04	7.351620e-04	2.548851e-03
335           	3.267857e-03	7.917325e-04	7.333409e-04	2.543123e-03
336           	3.255281e-03	7.897128e-04	7.318435e-04	2.541142e-03
337           	3.240923e-03	7.877578e-04	7.303557e-04	2.538413e-03
338           	3.229579e-03	7.876907e-04	7.335761e-04	2.562492e-03
339           	3.215036e-03	7.844890e-04	7.282316e-04	2.538599e-03
340           	3.201786e-03	7.824516e-04	7.267793e-04	2.534101e-03
341           	3.187331e-03	7.805057e-04	7.249349e-04	2.530685e-03
342           	3.174558e-03	7.781032e-04	7.230913e-04	2.523797e-03
343           	3.161989e-03	7.760268e-04	7.214209e-04	2.520196e-03
344           	3.149639e-03	7.741275e-04	7.199221e-04	2.517979e-03
345           	3.139751e-03	7.777085e-04	7.272407e-04	2.577095e-03
346           	3.127539e-03	7.740879e-04	7.237185e-04	2.564671e-03
347           	3.114244e-03	7.693849e-04	7.173980e-04	2.523704e-03
348           	3.101008e-03	7.667659e-04	7.146414e-04	2.510297e-03
349           	3.087695e-03	7.659371e-04	7.148718e-04	2.520681e-03
350           	3.076657e-03	7.637860e-04	7.124170e-04	2.515638e-03
351           	3.064674e-03	7.611377e-04	7.106120e-04	2.506983e-03
352           	3.053097e-03	7.592520e-04	7.086917e-04	2.499905e-03
353           	3.040888e-03	7.575430e-04	7.074879e-04	2.496431e-03
354           	3.031115e-03	7.575423e-04	7.109232e-04	2.523327e-03
355           	3.019437e-03	7.567620e-04	7.092350e-04	2.528138e-03
356           	3.008457e-03	7.538778e-04	7.063073e-04	2.525344e-03
357           	2.997064e-03	7.506695e-04	7.035359e-04	2.504005e-03
358           	2.984785e-03	7.487744e-04	7.014837e-04	2.496901e-03
359           	2.973224e-03	7.473132e-04	7.005365e-04	2.498321e-03
360           	2.962011e-03	7.453703e-04	6.983767e-04	2.492467e-03
361           	2.950871e-03	7.431506e-04	6.969890e-04	2.486196e-03
362           	2.942262e-03	7.433909e-04	7.005600e-04	2.514272e-03
363           	2.930979e-03	7.404658e-04	6.955923e-04	2.494324e-03
364           	2.920504e-03	7.381794e-04	6.936740e-04	2.488443e-03
365           	2.908738e-03	7.365847e-04	6.927065e-04	2.488918e-03
366           	2.901792e-03	7.433044e-04	7.046264e-04	2.584011e-03
367           	2.891416e-03	7.353065e-04	6.928350e-04	2.513319e-03
368           	2.882180e-03	7.316206e-04	6.894286e-04	2.493060e-03
369           	2.870370e-03	7.297149e-04	6.876030e-04	2.484480e-03
370           	2.861638e-03	7.300369e-04	6.912070e-04	2.513967e-03
371           	2.851325e-03	7.271780e-04	6.864618e-04	2.494746e-03
372           	2.840160e-03	7.248936e-04	6.844897e-04	2.487619e-03
373           	2.829543e-03	7.232298e-04	6.832766e-04	2.485373e-03
374           	2.819536e-03	7.215534e-04	6.817366e-04	2.482878e-03
375           	2.812278e-03	7.347862e-04	7.037132e-04	2.658896e-03
376           	2.802934e-03	7.204935e-04	6.821678e-04	2.516847e-03
377           	2.793816e-03	7.169017e-04	6.793392e-04	2.494062e-03
378           	2.786026e-03	7.171297e-04	6.827406e-04	2.518127e-03
379           	2.774651e-03	7.143281e-04	6.778612e-04	2.499232e-03
380           	2.764707e-03	7.120816e-04	6.757077e-04	2.488709e-03
381           	2.754024e-03	7.104623e-04	6.746344e-04	2.487253e-03
382           	2.744912e-03	7.088306e-04	6.732476e-04	2.486744e-03
383           	2.735392e-03	7.071193e-04	6.720170e-04	2.485669e-03
384           	2.729482e-03	7.177030e-04	6.896266e-04	2.633223e-03
385           	2.720974e-03	7.063062e-04	6.728447e-04	2.523260e-03
386           	2.713780e-03	7.049504e-04	6.752683e-04	2.533470e-03
387           	2.703747e-03	7.018947e-04	6.697404e-04	2.504287e-03
388           	2.693308e-03	6.997603e-04	6.676012e-04	2.496037e-03
389           	2.683702e-03	6.982921e-04	6.667869e-04	2.495649e-03
390           	2.675291e-03	6.966392e-04	6.654278e-04	2.495189e-03
391           	2.666778e-03	6.949776e-04	6.642651e-04	2.495342e-03
392           	2.659444e-03	6.935101e-04	6.633737e-04	2.497889e-03
393           	2.653316e-03	7.230221e-04	7.101293e-04	2.870848e-03
394           	2.647464e-03	6.971692e-04	6.727074e-04	2.636550e-03
395           	2.640062e-03	6.905319e-04	6.629253e-04	2.528803e-03
396           	2.630502e-03	6.880196e-04	6.604542e-04	2.510551e-03
397           	2.620263e-03	6.866072e-04	6.594997e-04	2.509959e-03
398           	2.612414e-03	6.850704e-04	6.583033e-04	2.510143e-03
399           	2.604687e-03	6.833923e-04	6.571887e-04	2.510881e-03
400           	2.596918e-03	6.819461e-04	6.561933e-04	2.513067e-03
401           	2.588735e-03	6.804548e-04	6.550613e-04	2.511111e-03
402           	2.583084e-03	6.850354e-04	6.651607e-04	2.591706e-03
403           	2.575510e-03	6.810312e-04	6.580070e-04	2.577335e-03
404           	2.567104e-03	6.767683e-04	6.538501e-04	2.529753e-03
405           	2.557911e-03	6.752509e-04	6.525882e-04	2.524463e-03
406           	2.550437e-03	6.739725e-04	6.515780e-04	2.528930e-03
407           	2.542720e-03	6.724524e-04	6.504120e-04	2.528680e-03
408           	2.535988e-03	6.707906e-04	6.492517e-04	2.526131e-03
409           	2.527456e-03	6.698142e-04	6.488104e-04	2.530530e-03
410           	2.521926e-03	6.704302e-04	6.525700e-04	2.562674e-03
411           	2.513809e-03	6.674960e-04	6.480351e-04	2.542211e-03
412           	2.506307e-03	6.655507e-04	6.462686e-04	2.536258e-03
413           	2.499179e-03	6.643187e-04	6.457521e-04	2.540510e-03
414           	2.494271e-03	6.672627e-04	6.515074e-04	2.594451e-03
415           	2.489241e-03	6.648621e-04	6.510066e-04	2.571894e-03
416           	2.482421e-03	6.606033e-04	6.438483e-04	2.554201e-03
417           	2.474494e-03	6.590514e-04	6.424000e-04	2.548451e-03
418           	2.469278e-03	6.597020e-04	6.463148e-04	2.581606e-03
419           	2.461908e-03	6.571623e-04	6.417687e-04	2.562938e-03
420           	2.454817e-03	6.552793e-04	6.402396e-04	2.559012e-03
421           	2.447157e-03	6.541032e-04	6.397167e-04	2.563120e-03
422           	2.441085e-03	6.527244e-04	6.384030e-04	2.561764e-03
423           	2.436933e-03	6.607425e-04	6.519062e-04	2.676116e-03
424           	2.430624e-03	6.523101e-04	6.395025e-04	2.596733e-03
425           	2.424254e-03	6.491325e-04	6.368792e-04	2.578851e-03
426           	2.418952e-03	6.497045e-04	6.404816e-04	2.604531e-03
427           	2.411951e-03	6.472441e-04	6.359607e-04	2.588529e-03
428           	2.404720e-03	6.454595e-04	6.344111e-04	2.583428e-03
429           	2.397842e-03	6.441263e-04	6.335234e-04	2.582683e-03
430           	2.391713e-03	6.428352e-04	6.323291e-04	2.583357e-03
431           	2.385225e-03	6.414652e-04	6.313811e-04	2.583820e-03
432           	2.381659e-03	6.442910e-04	6.368691e-04	2.636563e-03
433           	2.376387e-03	6.427861e-04	6.357355e-04	2.678826e-03
434           	2.373062e-03	6.404022e-04	6.355725e-04	2.641297e-03
435           	2.364936e-03	6.377506e-04	6.305600e-04	2.615575e-03
436           	2.358127e-03	6.359442e-04	6.286380e-04	2.608685e-03
437           	2.351451e-03	6.347711e-04	6.278123e-04	2.608274e-03
438           	2.345910e-03	6.333785e-04	6.267410e-04	2.608149e-03
439           	2.342084e-03	6.396753e-04	6.371795e-04	2.696697e-03
440           	2.336516e-03	6.328954e-04	6.271699e-04	2.643243e-03
441           	2.331562e-03	6.300215e-04	6.252716e-04	2.625098e-03
442           	2.327720e-03	6.307518e-04	6.290903e-04	2.656508e-03
443           	2.320671e-03	6.284321e-04	6.245761e-04	2.637572e-03
444           	2.314745e-03	6.267034e-04	6.227654e-04	2.630219e-03
445           	2.308084e-03	6.253948e-04	6.221911e-04	2.632215e-03
446           	2.302196e-03	6.243456e-04	6.212639e-04	2.635252e-03