# Region type : patch ent
# Faces  :    96
# Area   :    1.250000e-07
# Time        	areaAverage(p)
0             	0.000000e+00
1             	2.433210e+04
2             	2.120872e+04
3             	1.246686e+04
4             	3.076469e+03
5             	-3.913585e+03
6             	-7.388914e+03
7             	-7.668399e+03
8             	-5.812880e+03
9             	-2.957919e+03
10            	-2.164867e+02
11            	1.709966e+03
12            	2.568257e+03
13            	2.485375e+03
14            	1.796570e+03
15            	8.911051e+02
16            	8.747268e+01
17            	-4.266893e+02
18            	-6.083775e+02
19            	-5.157706e+02
20            	-2.639166e+02
21            	2.547454e+01
22            	2.593240e+02
23            	3.895086e+02
24            	4.125044e+02
25            	3.556042e+02
26            	2.590965e+02
27            	1.613932e+02
28            	8.893604e+01
29            	5.286566e+01
30            	5.012489e+01
31            	7.008111e+01
32            	9.925006e+01
33            	1.258745e+02
34            	1.426293e+02
35            	1.473791e+02
36            	1.420387e+02
37            	1.305963e+02
38            	1.174842e+02
39            	1.062465e+02
40            	9.879012e+01
41            	9.542295e+01
42            	9.519481e+01
43            	9.664392e+01
44            	9.835119e+01
45            	9.931362e+01
46            	9.906825e+01
47            	9.762458e+01
48            	9.532758e+01
49            	9.264997e+01
50            	9.007567e+01
51            	8.792062e+01
52            	8.625556e+01
53            	8.502728e+01
54            	8.412806e+01
55            	8.336406e+01
56            	8.259027e+01
57            	8.171538e+01
58            	8.073073e+01
59            	7.967114e+01
60            	7.857944e+01
61            	7.750341e+01
62            	7.648529e+01
63            	7.554565e+01
64            	7.468039e+01
65            	7.388187e+01
66            	7.312967e+01
67            	7.240402e+01
68            	7.169208e+01
69            	7.098759e+01
70            	7.029120e+01
71            	6.960632e+01
72            	6.893835e+01
73            	6.829287e+01
74            	6.767216e+01
75            	6.707488e+01
76            	6.649967e+01
77            	6.594465e+01
78            	6.540844e+01
79            	6.488862e+01
80            	6.438201e+01
81            	6.388817e+01
82            	6.340728e+01
83            	6.294013e+01
84            	6.248655e+01
85            	6.204465e+01
86            	6.161438e+01
87            	6.119577e+01
88            	6.078923e+01
89            	6.039435e+01
90            	6.000901e+01
91            	5.963322e+01
92            	5.926677e+01
93            	5.890979e+01
94            	5.856234e+01
95            	5.822313e+01
96            	5.789238e+01
97            	5.757008e+01
98            	5.725712e+01
99            	5.695261e+01
100           	5.665459e+01
101           	5.636299e+01
102           	5.607797e+01
103           	5.580048e+01
104           	5.553000e+01
105           	5.526508e+01
106           	5.500553e+01
107           	5.475171e+01
108           	5.450445e+01
109           	5.426328e+01
110           	5.402649e+01
111           	5.379421e+01
112           	5.356672e+01
113           	5.334486e+01
114           	5.312836e+01
115           	5.291552e+01
116           	5.270662e+01
117           	5.250180e+01
118           	5.230204e+01
119           	5.210707e+01
120           	5.191657e+01
121           	5.172858e+01
122           	5.154374e+01
123           	5.136303e+01
124           	5.118686e+01
125           	5.101272e+01
126           	5.084122e+01
127           	5.067298e+01
128           	5.051022e+01
129           	5.035270e+01
130           	5.019771e+01
131           	5.004439e+01
132           	4.989207e+01
133           	4.974496e+01
134           	4.959764e+01
135           	4.945495e+01
136           	4.931206e+01
137           	4.917357e+01
138           	4.903668e+01
139           	4.890347e+01
140           	4.877260e+01
141           	4.864417e+01
142           	4.851834e+01
143           	4.839501e+01
144           	4.827497e+01
145           	4.815645e+01
146           	4.803944e+01
147           	4.792421e+01
148           	4.781225e+01
149           	4.770221e+01
150           	4.759320e+01
151           	4.748559e+01
152           	4.737993e+01
153           	4.727790e+01
154           	4.717821e+01
155           	4.707919e+01
156           	4.698115e+01
157           	4.688578e+01
158           	4.679249e+01
159           	4.670250e+01
160           	4.661365e+01
161           	4.652489e+01
162           	4.643842e+01
163           	4.635419e+01
164           	4.627253e+01
165           	4.619157e+01
166           	4.611080e+01
167           	4.603180e+01
168           	4.595518e+01
169           	4.588120e+01
170           	4.580814e+01
171           	4.573574e+01
172           	4.566408e+01
173           	4.559406e+01
174           	4.552582e+01
175           	4.545779e+01
176           	4.539034e+01
177           	4.532389e+01
178           	4.525941e+01
179           	4.519694e+01
180           	4.513481e+01
181           	4.507334e+01
182           	4.501292e+01
183           	4.495438e+01
184           	4.489782e+01
185           	4.484150e+01
186           	4.478562e+01
187           	4.473044e+01
188           	4.467754e+01
189           	4.462619e+01
190           	4.457520e+01
191           	4.452479e+01
192           	4.447524e+01
193           	4.442728e+01
194           	4.438097e+01
195           	4.433474e+01
196           	4.428901e+01
197           	4.424434e+01
198           	4.420160e+01
199           	4.416054e+01
200           	4.411945e+01
201           	4.407854e+01
202           	4.403822e+01
203           	4.399942e+01
204           	4.396213e+01
205           	4.392478e+01
206           	4.388768e+01
207           	4.385123e+01
208           	4.381647e+01
209           	4.378303e+01
210           	4.374941e+01
211           	4.371662e+01
212           	4.368383e+01
213           	4.365233e+01
214           	4.362173e+01
215           	4.359082e+01
216           	4.355988e+01
217           	4.352930e+01
218           	4.350022e+01
219           	4.347281e+01
220           	4.344550e+01
221           	4.341822e+01
222           	4.339164e+01
223           	4.336660e+01
224           	4.334262e+01
225           	4.331807e+01
226           	4.329334e+01
227           	4.326888e+01
228           	4.324580e+01
229           	4.322389e+01
230           	4.320164e+01
231           	4.317946e+01
232           	4.315753e+01
233           	4.313685e+01
234           	4.311719e+01
235           	4.309703e+01
236           	4.307669e+01
237           	4.305659e+01
238           	4.303776e+01
239           	4.301998e+01
240           	4.300169e+01
241           	4.298319e+01
242           	4.296488e+01
243           	4.294777e+01
244           	4.293162e+01
245           	4.291489e+01
246           	4.289788e+01
247           	4.288105e+01
248           	4.286539e+01
249           	4.285072e+01
250           	4.283549e+01
251           	4.282001e+01
252           	4.280467e+01
253           	4.279048e+01
254           	4.277724e+01
255           	4.276339e+01
256           	4.274922e+01
257           	4.273513e+01
258           	4.272205e+01
259           	4.270980e+01
260           	4.269681e+01
261           	4.268343e+01
262           	4.267003e+01
263           	4.265768e+01
264           	4.264614e+01
265           	4.263379e+01
266           	4.262098e+01
267           	4.260807e+01
268           	4.259605e+01
269           	4.258469e+01
270           	4.257212e+01
271           	4.255936e+01
272           	4.254653e+01
273           	4.253456e+01
274           	4.252322e+01
275           	4.251102e+01
276           	4.249825e+01
277           	4.248528e+01
278           	4.247308e+01
279           	4.246159e+01
280           	4.244911e+01
281           	4.243600e+01
282           	4.242275e+01
283           	4.241037e+01
284           	4.239908e+01
285           	4.238677e+01
286           	4.237378e+01
287           	4.236065e+01
288           	4.234803e+01
289           	4.233597e+01
290           	4.232352e+01
291           	4.231067e+01
292           	4.229777e+01
293           	4.228574e+01
294           	4.227434e+01
295           	4.226196e+01
296           	4.224890e+01
297           	4.223557e+01
298           	4.222301e+01
299           	4.221108e+01
300           	4.219824e+01
301           	4.218484e+01
302           	4.217125e+01
303           	4.215851e+01
304           	4.214635e+01
305           	4.213327e+01
306           	4.211963e+01
307           	4.210564e+01
308           	4.209240e+01
309           	4.207974e+01
310           	4.206610e+01
311           	4.205181e+01
312           	4.203729e+01
313           	4.202352e+01
314           	4.201033e+01
315           	4.199617e+01
316           	4.198135e+01
317           	4.196627e+01
318           	4.195196e+01
319           	4.193823e+01
320           	4.192355e+01
321           	4.190824e+01
322           	4.189273e+01
323           	4.187804e+01
324           	4.186399e+01
325           	4.184905e+01
326           	4.183357e+01
327           	4.181793e+01
328           	4.180312e+01
329           	4.178896e+01
330           	4.177388e+01
331           	4.175821e+01
332           	4.174235e+01
333           	4.172733e+01
334           	4.171292e+01
335           	4.169760e+01
336           	4.168164e+01
337           	4.166548e+01
338           	4.165015e+01
339           	4.163544e+01
340           	4.161980e+01
341           	4.160355e+01
342           	4.158713e+01
343           	4.157155e+01
344           	4.155662e+01
345           	4.154073e+01
346           	4.152437e+01
347           	4.150785e+01
348           	4.149219e+01
349           	4.147717e+01
350           	4.146128e+01
351           	4.144484e+01
352           	4.142826e+01
353           	4.141257e+01
354           	4.139758e+01
355           	4.138175e+01
356           	4.136539e+01
357           	4.134893e+01
358           	4.133339e+01
359           	4.131858e+01
360           	4.130297e+01
361           	4.128686e+01
362           	4.127068e+01
363           	4.125547e+01
364           	4.124104e+01
365           	4.122584e+01
366           	4.121019e+01
367           	4.119451e+01
368           	4.117985e+01
369           	4.116600e+01
370           	4.115143e+01
371           	4.113647e+01
372           	4.112152e+01
373           	4.110761e+01
374           	4.109457e+01
375           	4.108088e+01
376           	4.106684e+01
377           	4.105287e+01
378           	4.104001e+01
379           	4.102805e+01
380           	4.101546e+01
381           	4.100254e+01
382           	4.098972e+01
383           	4.097824e+01
384           	4.096729e+01
385           	4.095572e+01
386           	4.094405e+01
387           	4.093247e+01
388           	4.092194e+01
389           	4.091227e+01
390           	4.090197e+01
391           	4.089128e+01
392           	4.088064e+01
393           	4.087111e+01
394           	4.086249e+01
395           	4.085324e+01
396           	4.084368e+01
397           	4.083420e+01
398           	4.082578e+01
399           	4.081815e+01
400           	4.080995e+01
401           	4.080143e+01
402           	4.079298e+01
403           	4.078560e+01
404           	4.077917e+01
405           	4.077205e+01
406           	4.076464e+01
407           	4.075719e+01
408           	4.075070e+01
409           	4.074499e+01
410           	4.073851e+01
411           	4.073159e+01
412           	4.072464e+01
413           	4.071868e+01
414           	4.071351e+01
415           	4.070754e+01
416           	4.070107e+01
417           	4.069448e+01
418           	4.068877e+01
419           	4.068373e+01
420           	4.067778e+01
421           	4.067123e+01
422           	4.066449e+01
423           	4.065857e+01
424           	4.065327e+01
425           	4.064701e+01
426           	4.064011e+01
427           	4.063296e+01
428           	4.062657e+01
429           	4.062075e+01
430           	4.061392e+01
431           	4.060639e+01
432           	4.059856e+01
433           	4.059147e+01
434           	4.058489e+01
435           	4.057728e+01
436           	4.056893e+01
437           	4.056026e+01
438           	4.055229e+01
439           	4.054479e+01
440           	4.053623e+01
441           	4.052689e+01
442           	4.051720e+01
443           	4.050813e+01
444           	4.049947e+01
445           	4.048976e+01
446           	4.047929e+01
447           	4.046846e+01
448           	4.045826e+01
449           	4.044848e+01
450           	4.043759e+01
451           	4.042591e+01
452           	4.041379e+01
453           	4.040231e+01
454           	4.039127e+01
455           	4.037915e+01
456           	4.036626e+01
457           	4.035300e+01
458           	4.034041e+01
459           	4.032835e+01
460           	4.031525e+01
461           	4.030143e+01
462           	4.028727e+01
463           	4.027402e+01
464           	4.026121e+01
465           	4.024733e+01
466           	4.023271e+01
467           	4.021783e+01
468           	4.020378e+01
469           	4.019036e+01
470           	4.017606e+01
471           	4.016120e+01
472           	4.014620e+01
473           	4.013210e+01
474           	4.011875e+01
475           	4.010453e+01
476           	4.008979e+01
477           	4.007506e+01
478           	4.006125e+01
479           	4.004817e+01
480           	4.003430e+01
481           	4.001996e+01
482           	4.000539e+01
483           	3.999191e+01
484           	3.997939e+01
485           	3.996625e+01
486           	3.995276e+01
487           	3.993929e+01
488           	3.992683e+01
489           	3.991490e+01
490           	3.990220e+01
491           	3.988932e+01
492           	3.987660e+01
493           	3.986497e+01
494           	3.985426e+01
495           	3.984286e+01
496           	3.983103e+01
497           	3.981920e+01
498           	3.980835e+01
499           	3.979837e+01
500           	3.978769e+01
501           	3.977662e+01
502           	3.976560e+01
503           	3.975590e+01
504           	3.974669e+01
505           	3.973708e+01
506           	3.972701e+01
507           	3.971692e+01
508           	3.970786e+01
509           	3.969920e+01
510           	3.969022e+01
511           	3.968109e+01
512           	3.967256e+01
513           	3.966487e+01
514           	3.965766e+01
515           	3.964969e+01
516           	3.964129e+01
517           	3.963292e+01
518           	3.962560e+01
519           	3.961914e+01
520           	3.961199e+01
521           	3.960442e+01
522           	3.959685e+01
523           	3.959027e+01
524           	3.958449e+01
525           	3.957784e+01
526           	3.957079e+01
527           	3.956373e+01
528           	3.955767e+01
529           	3.955238e+01
530           	3.954632e+01
531           	3.953975e+01
532           	3.953310e+01
533           	3.952738e+01
534           	3.952240e+01
535           	3.951662e+01
536           	3.951035e+01
537           	3.950405e+01
538           	3.949868e+01
539           	3.949402e+01
540           	3.948853e+01
541           	3.948252e+01
542           	3.947641e+01
543           	3.947123e+01
544           	3.946686e+01
545           	3.946162e+01
546           	3.945581e+01
547           	3.944986e+01
548           	3.944462e+01
549           	3.944023e+01
550           	3.943496e+01
551           	3.942944e+01
552           	3.942377e+01
553           	3.941894e+01
554           	3.941459e+01
555           	3.940960e+01
556           	3.940405e+01
557           	3.939834e+01
558           	3.939350e+01
559           	3.938937e+01
560           	3.938437e+01
561           	3.937885e+01
562           	3.937322e+01
563           	3.936850e+01
564           	3.936445e+01
565           	3.935959e+01
566           	3.935422e+01
567           	3.934870e+01
568           	3.934419e+01
569           	3.934034e+01
570           	3.933560e+01
571           	3.933018e+01
572           	3.932461e+01
573           	3.931994e+01
574           	3.931597e+01
575           	3.931115e+01
576           	3.930578e+01
577           	3.930028e+01
578           	3.929565e+01
579           	3.929167e+01
580           	3.928680e+01
581           	3.928131e+01
582           	3.927572e+01
583           	3.927096e+01
584           	3.926683e+01
585           	3.926180e+01
586           	3.925617e+01
587           	3.925037e+01
588           	3.924540e+01
589           	3.924107e+01
590           	3.923585e+01
591           	3.922998e+01
592           	3.922400e+01
593           	3.921881e+01
594           	3.921432e+01
595           	3.920891e+01
596           	3.920287e+01
597           	3.919663e+01
598           	3.919120e+01
599           	3.918639e+01
600           	3.918069e+01
601           	3.917437e+01
602           	3.916785e+01
603           	3.916216e+01
604           	3.915710e+01
605           	3.915113e+01
606           	3.914456e+01
607           	3.913781e+01
608           	3.913190e+01
609           	3.912663e+01
610           	3.912046e+01
611           	3.911369e+01
612           	3.910675e+01
613           	3.910068e+01
614           	3.909526e+01
615           	3.908893e+01
616           	3.908202e+01
617           	3.907494e+01
618           	3.906876e+01
619           	3.906325e+01
620           	3.905690e+01
621           	3.904993e+01
622           	3.904281e+01
623           	3.903659e+01
624           	3.903106e+01
625           	3.902468e+01
626           	3.901771e+01
627           	3.901065e+01
628           	3.900451e+01
629           	3.899909e+01
630           	3.899283e+01
631           	3.898601e+01
632           	3.897910e+01
633           	3.897313e+01
634           	3.896786e+01
635           	3.896178e+01
636           	3.895516e+01
637           	3.894824e+01
638           	3.894234e+01
639           	3.893725e+01
640           	3.893154e+01
641           	3.892512e+01
642           	3.891872e+01
643           	3.891320e+01
644           	3.890833e+01
645           	3.890258e+01
646           	3.889629e+01
647           	3.888990e+01
648           	3.888442e+01
649           	3.887964e+01
650           	3.887409e+01
651           	3.886806e+01
652           	3.886193e+01
653           	3.885675e+01
654           	3.885224e+01
655           	3.884683e+01
656           	3.884084e+01
657           	3.883470e+01
658           	3.882942e+01
659           	3.882485e+01
660           	3.881943e+01
661           	3.881354e+01
662           	3.880751e+01
663           	3.880234e+01
664           	3.879784e+01
665           	3.879246e+01
666           	3.878650e+01
667           	3.878038e+01
668           	3.877505e+01
669           	3.877052e+01
670           	3.876511e+01
671           	3.875912e+01
672           	3.875296e+01
673           	3.874767e+01
674           	3.874305e+01
675           	3.873755e+01
676           	3.873149e+01
677           	3.872527e+01
678           	3.871994e+01
679           	3.871530e+01
680           	3.870980e+01
681           	3.870374e+01
682           	3.869754e+01
683           	3.869222e+01
684           	3.868759e+01
685           	3.868210e+01
686           	3.867607e+01
687           	3.866991e+01
688           	3.866466e+01
689           	3.866011e+01
690           	3.865472e+01
691           	3.864880e+01
692           	3.864278e+01
693           	3.863768e+01
694           	3.863330e+01
695           	3.862809e+01
696           	3.862237e+01
697           	3.861656e+01
698           	3.861168e+01
699           	3.860754e+01
700           	3.860259e+01
701           	3.859714e+01
702           	3.859162e+01
703           	3.858706e+01
704           	3.858325e+01
705           	3.857865e+01
706           	3.857357e+01
707           	3.856843e+01
708           	3.856427e+01
709           	3.856087e+01
710           	3.855653e+01
711           	3.855181e+01
712           	3.854725e+01
713           	3.854367e+01
714           	3.854081e+01
715           	3.853713e+01
716           	3.853295e+01
717           	3.852869e+01
718           	3.852542e+01
719           	3.852293e+01
720           	3.851970e+01
721           	3.851603e+01
722           	3.851233e+01
723           	3.850963e+01
724           	3.850769e+01
725           	3.850497e+01
726           	3.850177e+01
727           	3.849851e+01
728           	3.849625e+01
729           	3.849471e+01
730           	3.849241e+01
731           	3.848966e+01
732           	3.848686e+01
733           	3.848504e+01
734           	3.848401e+01
735           	3.848215e+01
736           	3.847978e+01
737           	3.847733e+01
738           	3.847575e+01
739           	3.847499e+01
740           	3.847345e+01
741           	3.847144e+01
742           	3.846932e+01
743           	3.846819e+01
744           	3.846784e+01
745           	3.846667e+01
746           	3.846499e+01
747           	3.846320e+01
748           	3.846232e+01
749           	3.846217e+01
750           	3.846121e+01
751           	3.845974e+01
752           	3.845820e+01
753           	3.845759e+01
754           	3.845773e+01
755           	3.845706e+01
756           	3.845587e+01
757           	3.845459e+01
758           	3.845424e+01
759           	3.845461e+01
760           	3.845417e+01
761           	3.845321e+01
762           	3.845217e+01
763           	3.845205e+01
764           	3.845268e+01
765           	3.845248e+01
766           	3.845178e+01
767           	3.845098e+01
768           	3.845112e+01
769           	3.845199e+01
770           	3.845206e+01
771           	3.845161e+01
772           	3.845106e+01
773           	3.845144e+01
774           	3.845256e+01
775           	3.845287e+01
776           	3.845269e+01
777           	3.845250e+01
778           	3.845322e+01
779           	3.845462e+01
780           	3.845519e+01
781           	3.845524e+01
782           	3.845521e+01
783           	3.845614e+01
784           	3.845774e+01
785           	3.845867e+01
786           	3.845911e+01
787           	3.845947e+01
788           	3.846076e+01
789           	3.846278e+01
790           	3.846398e+01
791           	3.846468e+01
792           	3.846531e+01
793           	3.846688e+01
794           	3.846921e+01
795           	3.847078e+01
796           	3.847184e+01
797           	3.847282e+01
798           	3.847474e+01
799           	3.847741e+01
800           	3.847931e+01
801           	3.848074e+01
802           	3.848211e+01
803           	3.848445e+01
804           	3.848753e+01
805           	3.848979e+01
806           	3.849155e+01
807           	3.849323e+01
808           	3.849587e+01
809           	3.849926e+01
810           	3.850188e+01
811           	3.850400e+01
812           	3.850605e+01
813           	3.850906e+01
814           	3.851281e+01
815           	3.851576e+01
816           	3.851819e+01
817           	3.852053e+01
818           	3.852379e+01
819           	3.852779e+01
820           	3.853089e+01
821           	3.853352e+01
822           	3.853608e+01
823           	3.853959e+01
824           	3.854385e+01
825           	3.854727e+01
826           	3.855017e+01
827           	3.855293e+01
828           	3.855657e+01
829           	3.856091e+01
830           	3.856439e+01
831           	3.856728e+01
832           	3.857006e+01
833           	3.857374e+01
834           	3.857814e+01
835           	3.858167e+01
836           	3.858465e+01
837           	3.858748e+01
838           	3.859113e+01
839           	3.859545e+01
840           	3.859888e+01
841           	3.860172e+01
842           	3.860439e+01
843           	3.860789e+01
844           	3.861205e+01
845           	3.861530e+01
846           	3.861796e+01
847           	3.862044e+01
848           	3.862371e+01
849           	3.862763e+01
850           	3.863062e+01
851           	3.863300e+01
852           	3.863517e+01
853           	3.863813e+01
854           	3.864172e+01
855           	3.864438e+01
856           	3.864641e+01
857           	3.864823e+01
858           	3.865082e+01
859           	3.865403e+01
860           	3.865631e+01
861           	3.865795e+01
862           	3.865936e+01
863           	3.866156e+01
864           	3.866440e+01
865           	3.866629e+01
866           	3.866753e+01
867           	3.866855e+01
868           	3.867033e+01
869           	3.867273e+01
870           	3.867419e+01
871           	3.867502e+01
872           	3.867563e+01
873           	3.867706e+01
874           	3.867910e+01
875           	3.868018e+01
876           	3.868063e+01
877           	3.868085e+01
878           	3.868184e+01
879           	3.868344e+01
880           	3.868411e+01
881           	3.868415e+01
882           	3.868399e+01
883           	3.868465e+01
884           	3.868592e+01
885           	3.868626e+01
886           	3.868596e+01
887           	3.868545e+01
888           	3.868575e+01
889           	3.868665e+01
890           	3.868662e+01
891           	3.868596e+01
892           	3.868508e+01
893           	3.868502e+01
894           	3.868557e+01
895           	3.868519e+01
896           	3.868419e+01
897           	3.868297e+01
898           	3.868256e+01
899           	3.868276e+01
900           	3.868203e+01
901           	3.868067e+01
902           	3.867909e+01
903           	3.867831e+01
904           	3.867815e+01
905           	3.867705e+01
906           	3.867533e+01
907           	3.867339e+01
908           	3.867226e+01
909           	3.867173e+01
910           	3.867027e+01
911           	3.866817e+01
912           	3.866585e+01
913           	3.866433e+01
914           	3.866342e+01
915           	3.866156e+01
916           	3.865906e+01
917           	3.865637e+01
918           	3.865444e+01
919           	3.865314e+01
920           	3.865087e+01
921           	3.864797e+01
922           	3.864483e+01
923           	3.864246e+01
924           	3.864071e+01
925           	3.863801e+01
926           	3.863467e+01
927           	3.863109e+01
928           	3.862830e+01
929           	3.862610e+01
930           	3.862295e+01
931           	3.861916e+01
932           	3.861513e+01
933           	3.861187e+01
934           	3.860921e+01
935           	3.860559e+01
936           	3.860132e+01
937           	3.859681e+01
938           	3.859307e+01
939           	3.858994e+01
940           	3.858583e+01
941           	3.858107e+01
942           	3.857607e+01
943           	3.857185e+01
944           	3.856823e+01
945           	3.856364e+01
946           	3.855841e+01
947           	3.855291e+01
948           	3.854819e+01
949           	3.854407e+01
950           	3.853900e+01
951           	3.853329e+01
952           	3.852736e+01
953           	3.852219e+01
954           	3.851762e+01
955           	3.851208e+01
956           	3.850593e+01
957           	3.849954e+01
958           	3.849392e+01
959           	3.848891e+01
960           	3.848295e+01
961           	3.847638e+01
962           	3.846958e+01
963           	3.846357e+01
964           	3.845820e+01
965           	3.845190e+01
966           	3.844496e+01
967           	3.843780e+01
968           	3.843144e+01
969           	3.842573e+01
970           	3.841910e+01
971           	3.841184e+01
972           	3.840439e+01
973           	3.839775e+01
974           	3.839177e+01
975           	3.838488e+01
976           	3.837739e+01
977           	3.836971e+01
978           	3.836286e+01
979           	3.835667e+01
980           	3.834958e+01
981           	3.834190e+01
982           	3.833404e+01
983           	3.832703e+01
984           	3.832069e+01
985           	3.831346e+01
986           	3.830567e+01
987           	3.829773e+01
988           	3.829062e+01
989           	3.828417e+01
990           	3.827686e+01
991           	3.826900e+01
992           	3.826109e+01
993           	3.825393e+01
994           	3.824747e+01
995           	3.824016e+01
996           	3.823231e+01
997           	3.822434e+01
998           	3.821726e+01
999           	3.821103e+01
1000          	3.820388e+01
1001          	3.819611e+01
1002          	3.818797e+01
1003          	3.818102e+01
1004          	3.817454e+01
1005          	3.816733e+01
1006          	3.815968e+01
1007          	3.815198e+01
1008          	3.814524e+01
1009          	3.813919e+01
1010          	3.813230e+01
1011          	3.812486e+01
1012          	3.811732e+01
1013          	3.811062e+01
1014          	3.810470e+01
1015          	3.809789e+01
1016          	3.809069e+01
1017          	3.808338e+01
1018          	3.807688e+01
1019          	3.807123e+01
1020          	3.806476e+01
1021          	3.805779e+01
1022          	3.805073e+01
1023          	3.804448e+01
1024          	3.803907e+01
1025          	3.803286e+01
1026          	3.802615e+01
1027          	3.801932e+01
1028          	3.801348e+01
1029          	3.800831e+01
1030          	3.800233e+01
1031          	3.799585e+01
1032          	3.798930e+01
1033          	3.798384e+01
1034          	3.797902e+01
1035          	3.797337e+01
1036          	3.796700e+01
1037          	3.796096e+01
1038          	3.795595e+01
1039          	3.795149e+01
1040          	3.794616e+01
1041          	3.794006e+01
1042          	3.793428e+01
1043          	3.792955e+01
1044          	3.792540e+01
1045          	3.792054e+01
1046          	3.791511e+01
1047          	3.790957e+01
1048          	3.790490e+01
1049          	3.790101e+01
1050          	3.789631e+01
1051          	3.789119e+01
1052          	3.788606e+01
1053          	3.788185e+01
1054          	3.787840e+01
1055          	3.787416e+01
1056          	3.786948e+01
1057          	3.786476e+01
1058          	3.786102e+01
1059          	3.785795e+01
1060          	3.785407e+01
1061          	3.784973e+01
1062          	3.784536e+01
1063          	3.784194e+01
1064          	3.783924e+01
1065          	3.783579e+01
1066          	3.783190e+01