# Region type : patch out
# Faces  :    108
# Area   :    1.250000e-07
# Time        	areaAverage(p)
0             	0.000000e+00
1             	2.612402e+04
2             	2.276354e+04
3             	1.328654e+04
4             	3.163653e+03
5             	-4.318333e+03
6             	-8.003366e+03
7             	-8.246619e+03
8             	-6.202201e+03
9             	-3.111430e+03
10            	-1.692274e+02
11            	1.878130e+03
12            	2.769235e+03
13            	2.652520e+03
14            	1.896875e+03
15            	9.205155e+02
16            	6.532003e+01
17            	-4.742791e+02
18            	-6.549345e+02
19            	-5.458787e+02
20            	-2.711871e+02
21            	3.855127e+01
22            	2.851349e+02
23            	4.192023e+02
24            	4.389330e+02
25            	3.749230e+02
26            	2.700997e+02
27            	1.658712e+02
28            	9.039973e+01
29            	5.344260e+01
30            	5.227581e+01
31            	7.486852e+01
32            	1.065655e+02
33            	1.348527e+02
34            	1.522156e+02
35            	1.565293e+02
36            	1.501796e+02
37            	1.375397e+02
38            	1.234444e+02
39            	1.115984e+02
40            	1.039770e+02
41            	1.006331e+02
42            	1.005232e+02
43            	1.021370e+02
44            	1.039212e+02
45            	1.048772e+02
46            	1.045150e+02
47            	1.028505e+02
48            	1.003264e+02
49            	9.742317e+01
50            	9.465612e+01
51            	9.232748e+01
52            	9.057250e+01
53            	8.925788e+01
54            	8.827808e+01
55            	8.743233e+01
56            	8.660333e+01
57            	8.562628e+01
58            	8.452861e+01
59            	8.335921e+01
60            	8.213527e+01
61            	8.093392e+01
62            	7.980552e+01
63            	7.874759e+01
64            	7.780247e+01
65            	7.690106e+01
66            	7.607255e+01
67            	7.524710e+01
68            	7.444958e+01
69            	7.366840e+01
70            	7.288824e+01
71            	7.210285e+01
72            	7.134137e+01
73            	7.059418e+01
74            	6.987889e+01
75            	6.921307e+01
76            	6.855559e+01
77            	6.791217e+01
78            	6.730226e+01
79            	6.669228e+01
80            	6.611673e+01
81            	6.553320e+01
82            	6.495774e+01
83            	6.440053e+01
84            	6.386584e+01
85            	6.336224e+01
86            	6.286521e+01
87            	6.236008e+01
88            	6.187753e+01
89            	6.139896e+01
90            	6.094305e+01
91            	6.048556e+01
92            	6.004528e+01
93            	5.961412e+01
94            	5.919395e+01
95            	5.878435e+01
96            	5.838612e+01
97            	5.799560e+01
98            	5.761271e+01
99            	5.723391e+01
100           	5.686267e+01
101           	5.649949e+01
102           	5.614893e+01
103           	5.580407e+01
104           	5.546476e+01
105           	5.512960e+01
106           	5.480450e+01
107           	5.448628e+01
108           	5.417346e+01
109           	5.386433e+01
110           	5.356219e+01
111           	5.326702e+01
112           	5.297900e+01
113           	5.269491e+01
114           	5.241499e+01
115           	5.213975e+01
116           	5.187108e+01
117           	5.166730e+01
118           	5.139170e+01
119           	5.112191e+01
120           	5.085984e+01
121           	5.060584e+01
122           	5.036109e+01
123           	5.012282e+01
124           	4.989086e+01
125           	4.966350e+01
126           	4.943924e+01
127           	4.921862e+01
128           	4.899957e+01
129           	4.878102e+01
130           	4.856535e+01
131           	4.835327e+01
132           	4.814883e+01
133           	4.794782e+01
134           	4.775082e+01
135           	4.755656e+01
136           	4.736600e+01
137           	4.717708e+01
138           	4.699050e+01
139           	4.680580e+01
140           	4.662472e+01
141           	4.644602e+01
142           	4.627036e+01
143           	4.609644e+01
144           	4.592587e+01
145           	4.575781e+01
146           	4.559283e+01
147           	4.542906e+01
148           	4.526718e+01
149           	4.550302e+01
150           	4.525571e+01
151           	4.499054e+01
152           	4.474525e+01
153           	4.453459e+01
154           	4.435788e+01
155           	4.420573e+01
156           	4.407036e+01
157           	4.393891e+01
158           	4.380395e+01
159           	4.366507e+01
160           	4.352428e+01
161           	4.338015e+01
162           	4.323218e+01
163           	4.308644e+01
164           	4.294622e+01
165           	4.281093e+01
166           	4.268047e+01
167           	4.255247e+01
168           	4.242920e+01
169           	4.229701e+01
170           	4.217652e+01
171           	4.205883e+01
172           	4.193779e+01
173           	4.181636e+01
174           	4.169694e+01
175           	4.157901e+01
176           	4.146602e+01
177           	4.135196e+01
178           	4.123737e+01
179           	4.112410e+01
180           	4.101449e+01
181           	4.090566e+01
182           	4.079837e+01
183           	4.069137e+01
184           	4.058546e+01
185           	4.047943e+01
186           	4.037500e+01
187           	4.027137e+01
188           	4.016911e+01
189           	4.006710e+01
190           	3.996548e+01
191           	3.986707e+01
192           	3.976910e+01
193           	3.967189e+01
194           	3.957629e+01
195           	3.948105e+01
196           	3.938725e+01
197           	3.929368e+01
198           	3.920187e+01
199           	3.911052e+01
200           	3.902082e+01
201           	3.893154e+01
202           	3.884392e+01
203           	3.875641e+01
204           	3.866983e+01
205           	3.858313e+01
206           	3.849796e+01
207           	3.841506e+01
208           	3.833107e+01
209           	3.824697e+01
210           	3.816419e+01
211           	3.808198e+01
212           	3.800292e+01
213           	3.792345e+01
214           	3.784469e+01
215           	3.776454e+01
216           	3.768862e+01
217           	3.761322e+01
218           	3.753887e+01
219           	3.746430e+01
220           	3.738985e+01
221           	3.731648e+01
222           	3.724512e+01
223           	3.717407e+01
224           	3.710431e+01
225           	3.703502e+01
226           	3.696717e+01
227           	3.689988e+01
228           	3.683329e+01
229           	3.676643e+01
230           	3.670078e+01
231           	3.663504e+01
232           	3.657140e+01
233           	3.650781e+01
234           	3.644604e+01
235           	3.638505e+01
236           	3.632531e+01
237           	3.626528e+01
238           	3.620605e+01
239           	3.614665e+01
240           	3.608909e+01
241           	3.603124e+01
242           	3.597508e+01
243           	3.591903e+01
244           	3.586464e+01
245           	3.581085e+01
246           	3.575870e+01
247           	3.570638e+01
248           	3.565514e+01
249           	3.560415e+01
250           	3.555472e+01
251           	3.550735e+01
252           	3.545949e+01
253           	3.541244e+01
254           	3.536750e+01
255           	3.532271e+01
256           	3.527883e+01
257           	3.523465e+01
258           	3.519155e+01
259           	3.514871e+01
260           	3.510704e+01
261           	3.506503e+01
262           	3.502369e+01
263           	3.498244e+01
264           	3.494258e+01
265           	3.490269e+01
266           	3.486330e+01
267           	3.482482e+01
268           	3.478585e+01
269           	3.474837e+01
270           	3.471145e+01
271           	3.467394e+01
272           	3.463705e+01
273           	3.459978e+01
274           	3.456336e+01
275           	3.452740e+01
276           	3.449270e+01
277           	3.445806e+01
278           	3.442465e+01
279           	3.439517e+01
280           	3.436229e+01
281           	3.432745e+01
282           	3.429311e+01
283           	3.425944e+01
284           	3.422837e+01
285           	3.419835e+01
286           	3.416976e+01
287           	3.414097e+01
288           	3.411297e+01
289           	3.408470e+01
290           	3.405698e+01
291           	3.402859e+01
292           	3.400074e+01
293           	3.397251e+01
294           	3.394530e+01
295           	3.391794e+01
296           	3.389146e+01
297           	3.386480e+01
298           	3.383942e+01
299           	3.381381e+01
300           	3.378880e+01
301           	3.376365e+01
302           	3.373960e+01
303           	3.371547e+01
304           	3.369200e+01
305           	3.366765e+01
306           	3.364369e+01
307           	3.361964e+01
308           	3.359686e+01
309           	3.357428e+01
310           	3.355182e+01
311           	3.352853e+01
312           	3.350594e+01
313           	3.348315e+01
314           	3.346122e+01
315           	3.343901e+01
316           	3.341778e+01
317           	3.339675e+01
318           	3.337681e+01
319           	3.335658e+01
320           	3.333713e+01
321           	3.331752e+01
322           	3.329862e+01
323           	3.327902e+01
324           	3.325964e+01
325           	3.323955e+01
326           	3.322048e+01
327           	3.320158e+01
328           	3.318375e+01
329           	3.316525e+01
330           	3.314727e+01
331           	3.312893e+01
332           	3.311144e+01
333           	3.309358e+01
334           	3.307647e+01
335           	3.305912e+01
336           	3.304638e+01
337           	3.302951e+01
338           	3.301367e+01
339           	3.299745e+01
340           	3.298208e+01
341           	3.296665e+01
342           	3.295194e+01
343           	3.293653e+01
344           	3.292159e+01
345           	3.290641e+01
346           	3.289237e+01
347           	3.287806e+01
348           	3.286410e+01
349           	3.284944e+01
350           	3.283599e+01
351           	3.282295e+01
352           	3.281014e+01
353           	3.279694e+01
354           	3.278421e+01
355           	3.277077e+01
356           	3.275775e+01
357           	3.274439e+01
358           	3.273165e+01
359           	3.271840e+01
360           	3.270592e+01
361           	3.269342e+01
362           	3.268170e+01
363           	3.266931e+01
364           	3.265733e+01
365           	3.264493e+01
366           	3.263346e+01
367           	3.262154e+01
368           	3.261064e+01
369           	3.259838e+01
370           	3.258731e+01
371           	3.257617e+01
372           	3.256576e+01
373           	3.255394e+01
374           	3.254201e+01
375           	3.252911e+01
376           	3.251699e+01
377           	3.250450e+01
378           	3.249278e+01
379           	3.248081e+01
380           	3.247001e+01
381           	3.245885e+01
382           	3.244807e+01
383           	3.243646e+01
384           	3.242547e+01
385           	3.241469e+01
386           	3.240469e+01
387           	3.239369e+01
388           	3.238273e+01
389           	3.237119e+01
390           	3.236046e+01
391           	3.234930e+01
392           	3.233816e+01
393           	3.232608e+01
394           	3.231456e+01
395           	3.230265e+01
396           	3.229140e+01
397           	3.227964e+01
398           	3.226863e+01
399           	3.225759e+01
400           	3.224728e+01
401           	3.223625e+01
402           	3.222567e+01
403           	3.221490e+01
404           	3.220524e+01
405           	3.219498e+01
406           	3.218476e+01
407           	3.217371e+01
408           	3.216314e+01
409           	3.215226e+01
410           	3.214203e+01
411           	3.213083e+01
412           	3.211994e+01
413           	3.210857e+01
414           	3.209796e+01
415           	3.208689e+01
416           	3.207645e+01
417           	3.206560e+01
418           	3.205584e+01
419           	3.204548e+01
420           	3.203676e+01
421           	3.202650e+01
422           	3.201717e+01
423           	3.200764e+01
424           	3.199858e+01
425           	3.198842e+01
426           	3.197859e+01
427           	3.196833e+01
428           	3.195922e+01
429           	3.194981e+01
430           	3.194065e+01
431           	3.193067e+01
432           	3.192164e+01
433           	3.191271e+01
434           	3.190414e+01
435           	3.189479e+01
436           	3.188590e+01
437           	3.187681e+01
438           	3.186849e+01
439           	3.185991e+01
440           	3.185178e+01
441           	3.184284e+01
442           	3.183436e+01
443           	3.182565e+01
444           	3.181758e+01
445           	3.180883e+01
446           	3.180054e+01
447           	3.179181e+01
448           	3.178408e+01
449           	3.177591e+01
450           	3.176811e+01
451           	3.175954e+01
452           	3.175174e+01
453           	3.174379e+01
454           	3.173691e+01
455           	3.172918e+01
456           	3.172197e+01
457           	3.171411e+01
458           	3.170672e+01
459           	3.169859e+01
460           	3.169087e+01
461           	3.168265e+01
462           	3.167551e+01
463           	3.166804e+01
464           	3.166108e+01
465           	3.165343e+01
466           	3.164643e+01
467           	3.163922e+01
468           	3.163259e+01
469           	3.162508e+01
470           	3.161783e+01
471           	3.161011e+01
472           	3.160384e+01
473           	3.159771e+01
474           	3.159155e+01
475           	3.158415e+01
476           	3.157494e+01
477           	3.156902e+01
478           	3.156327e+01
479           	3.155633e+01
480           	3.154940e+01
481           	3.154164e+01
482           	3.153444e+01
483           	3.152719e+01
484           	3.152064e+01
485           	3.151358e+01
486           	3.150714e+01
487           	3.150017e+01
488           	3.149402e+01
489           	3.148780e+01
490           	3.148191e+01
491           	3.147579e+01
492           	3.147092e+01
493           	3.146474e+01
494           	3.145880e+01
495           	3.145208e+01
496           	3.144598e+01
497           	3.143953e+01
498           	3.143372e+01
499           	3.142737e+01
500           	3.142175e+01
501           	3.141612e+01
502           	3.141127e+01
503           	3.140572e+01
504           	3.140055e+01
505           	3.139495e+01
506           	3.139062e+01
507           	3.138583e+01
508           	3.138157e+01
509           	3.137646e+01
510           	3.137207e+01
511           	3.136766e+01
512           	3.136361e+01
513           	3.135785e+01
514           	3.135208e+01
515           	3.134569e+01
516           	3.134022e+01
517           	3.133450e+01
518           	3.132961e+01
519           	3.132453e+01
520           	3.132054e+01
521           	3.131608e+01
522           	3.131182e+01
523           	3.130668e+01
524           	3.130200e+01
525           	3.129761e+01
526           	3.129361e+01
527           	3.128812e+01
528           	3.128272e+01
529           	3.127669e+01
530           	3.127144e+01
531           	3.126563e+01
532           	3.125999e+01
533           	3.125345e+01
534           	3.124763e+01
535           	3.124157e+01
536           	3.123620e+01
537           	3.122959e+01
538           	3.122302e+01
539           	3.121572e+01
540           	3.120902e+01
541           	3.120286e+01
542           	3.119619e+01
543           	3.118946e+01
544           	3.118383e+01
545           	3.117766e+01
546           	3.117168e+01
547           	3.116473e+01
548           	3.115825e+01
549           	3.115144e+01
550           	3.114521e+01
551           	3.113814e+01
552           	3.113142e+01
553           	3.112438e+01
554           	3.111835e+01
555           	3.111194e+01
556           	3.110569e+01
557           	3.109874e+01
558           	3.109259e+01
559           	3.108626e+01
560           	3.108078e+01
561           	3.107443e+01
562           	3.106848e+01
563           	3.106229e+01
564           	3.105679e+01
565           	3.105067e+01
566           	3.104508e+01
567           	3.103917e+01
568           	3.103433e+01
569           	3.102911e+01
570           	3.102426e+01
571           	3.101863e+01
572           	3.101376e+01
573           	3.100871e+01
574           	3.100436e+01
575           	3.101346e+01
576           	3.100519e+01
577           	3.099655e+01
578           	3.099017e+01
579           	3.098363e+01
580           	3.097791e+01
581           	3.097176e+01
582           	3.096621e+01
583           	3.095970e+01
584           	3.095408e+01
585           	3.094792e+01
586           	3.094222e+01
587           	3.093596e+01
588           	3.093781e+01
589           	3.093097e+01
590           	3.092429e+01
591           	3.091695e+01
592           	3.091040e+01
593           	3.090370e+01
594           	3.089767e+01
595           	3.089102e+01
596           	3.088492e+01
597           	3.087874e+01
598           	3.087323e+01
599           	3.086691e+01
600           	3.086089e+01
601           	3.085440e+01
602           	3.084901e+01
603           	3.084355e+01
604           	3.083866e+01
605           	3.083293e+01
606           	3.082792e+01
607           	3.082258e+01
608           	3.081853e+01
609           	3.081294e+01
610           	3.080723e+01
611           	3.080081e+01
612           	3.079519e+01
613           	3.078922e+01
614           	3.078402e+01
615           	3.077863e+01
616           	3.077443e+01
617           	3.076986e+01
618           	3.076556e+01
619           	3.076036e+01
620           	3.075738e+01
621           	3.075227e+01
622           	3.074804e+01
623           	3.074284e+01
624           	3.073769e+01
625           	3.073209e+01
626           	3.072700e+01
627           	3.072101e+01
628           	3.071523e+01
629           	3.070861e+01
630           	3.070241e+01
631           	3.069548e+01
632           	3.068936e+01
633           	3.068267e+01
634           	3.067626e+01
635           	3.066934e+01
636           	3.066607e+01
637           	3.065924e+01
638           	3.065278e+01
639           	3.064533e+01
640           	3.063848e+01
641           	3.063108e+01
642           	3.062637e+01
643           	3.061930e+01
644           	3.061135e+01
645           	3.060217e+01
646           	3.059362e+01
647           	3.058474e+01
648           	3.057677e+01
649           	3.056910e+01
650           	3.056271e+01
651           	3.055602e+01
652           	3.055000e+01
653           	3.054346e+01
654           	3.053702e+01
655           	3.052982e+01
656           	3.052326e+01
657           	3.051612e+01
658           	3.050951e+01
659           	3.050251e+01
660           	3.049658e+01
661           	3.049026e+01
662           	3.048432e+01
663           	3.047761e+01
664           	3.047164e+01
665           	3.046551e+01
666           	3.046006e+01
667           	3.045363e+01
668           	3.044748e+01
669           	3.044752e+01
670           	3.044105e+01
671           	3.043420e+01
672           	3.042803e+01
673           	3.042162e+01
674           	3.041585e+01
675           	3.040961e+01
676           	3.040436e+01
677           	3.039876e+01
678           	3.039385e+01
679           	3.038861e+01
680           	3.038452e+01
681           	3.038004e+01
682           	3.037622e+01
683           	3.037226e+01
684           	3.036922e+01
685           	3.036647e+01
686           	3.036448e+01
687           	3.036157e+01
688           	3.035889e+01
689           	3.035583e+01
690           	3.035373e+01
691           	3.035136e+01
692           	3.034911e+01
693           	3.034598e+01
694           	3.034342e+01
695           	3.034043e+01
696           	3.033804e+01
697           	3.033509e+01
698           	3.033279e+01
699           	3.033037e+01
700           	3.032880e+01
701           	3.032653e+01
702           	3.032474e+01
703           	3.032225e+01
704           	3.032034e+01
705           	3.031756e+01
706           	3.031477e+01
707           	3.031099e+01
708           	3.030790e+01
709           	3.030462e+01
710           	3.030210e+01
711           	3.029861e+01
712           	3.029556e+01
713           	3.029190e+01
714           	3.028886e+01
715           	3.028522e+01
716           	3.028213e+01
717           	3.027866e+01
718           	3.027669e+01
719           	3.027457e+01
720           	3.027277e+01
721           	3.026999e+01
722           	3.026755e+01
723           	3.026467e+01
724           	3.026227e+01
725           	3.025900e+01
726           	3.025608e+01
727           	3.025283e+01
728           	3.025061e+01
729           	3.024797e+01
730           	3.024548e+01
731           	3.024206e+01
732           	3.023890e+01
733           	3.023658e+01
734           	3.023450e+01
735           	3.023161e+01
736           	3.022904e+01
737           	3.022594e+01
738           	3.022323e+01
739           	3.022006e+01
740           	3.021725e+01
741           	3.021364e+01
742           	3.021053e+01
743           	3.020693e+01
744           	3.020397e+01
745           	3.020053e+01
746           	3.019763e+01
747           	3.019464e+01
748           	3.019241e+01
749           	3.018935e+01
750           	3.018650e+01
751           	3.018277e+01
752           	3.017947e+01
753           	3.017593e+01
754           	3.017336e+01
755           	3.017018e+01
756           	3.016728e+01
757           	3.016374e+01
758           	3.016099e+01
759           	3.015753e+01
760           	3.015427e+01
761           	3.015014e+01
762           	3.014693e+01
763           	3.014335e+01
764           	3.014017e+01
765           	3.013620e+01
766           	3.013260e+01
767           	3.012835e+01
768           	3.012462e+01
769           	3.012051e+01
770           	3.011718e+01
771           	3.011349e+01
772           	3.011080e+01
773           	3.010788e+01
774           	3.010534e+01
775           	3.010156e+01
776           	3.009776e+01
777           	3.009363e+01
778           	3.009017e+01
779           	3.008603e+01
780           	3.008231e+01
781           	3.007797e+01
782           	3.007422e+01
783           	3.006995e+01
784           	3.006653e+01
785           	3.006264e+01
786           	3.005930e+01
787           	3.005559e+01
788           	3.005778e+01
789           	3.005370e+01
790           	3.005025e+01
791           	3.004618e+01
792           	3.004304e+01
793           	3.003986e+01
794           	3.003766e+01
795           	3.003417e+01
796           	3.003072e+01
797           	3.002658e+01
798           	3.002317e+01
799           	3.001930e+01
800           	3.001613e+01
801           	3.001270e+01
802           	3.001053e+01
803           	3.000846e+01
804           	3.000703e+01
805           	3.000472e+01
806           	3.000287e+01
807           	3.000048e+01
808           	2.999847e+01
809           	2.999547e+01
810           	2.999277e+01
811           	2.998984e+01
812           	2.998801e+01
813           	2.998615e+01
814           	2.998431e+01
815           	2.998150e+01
816           	2.997918e+01
817           	2.997642e+01
818           	2.997428e+01
819           	2.997165e+01
820           	2.997021e+01
821           	2.996864e+01
822           	2.996811e+01
823           	2.996682e+01
824           	2.996566e+01
825           	2.996373e+01
826           	2.996247e+01
827           	2.996052e+01
828           	2.995877e+01
829           	2.995617e+01
830           	2.995438e+01
831           	2.995242e+01
832           	2.995130e+01
833           	2.994907e+01
834           	2.994696e+01
835           	2.994414e+01
836           	2.994190e+01
837           	2.993931e+01
838           	2.993730e+01
839           	2.993509e+01
840           	2.993384e+01
841           	2.993191e+01
842           	2.993008e+01
843           	2.992722e+01
844           	2.992480e+01
845           	2.992202e+01
846           	2.991981e+01
847           	2.991674e+01
848           	2.991398e+01
849           	2.991087e+01
850           	2.990865e+01
851           	2.990604e+01
852           	2.990350e+01
853           	2.989998e+01
854           	2.989701e+01
855           	2.989385e+01
856           	2.989144e+01
857           	2.988834e+01
858           	2.988567e+01
859           	2.988265e+01
860           	2.988018e+01
861           	2.987690e+01
862           	2.987394e+01
863           	2.987048e+01
864           	2.986795e+01
865           	2.986493e+01
866           	2.986221e+01
867           	2.985868e+01
868           	2.985589e+01
869           	2.985286e+01
870           	2.985054e+01
871           	2.984720e+01
872           	2.984456e+01
873           	2.984122e+01
874           	2.983956e+01
875           	2.983701e+01
876           	2.983445e+01
877           	2.983080e+01
878           	2.982734e+01
879           	2.982325e+01
880           	2.981993e+01
881           	2.981618e+01
882           	2.981306e+01
883           	2.980955e+01
884           	2.980929e+01
885           	2.980608e+01
886           	2.980273e+01
887           	2.979848e+01
888           	2.979490e+01
889           	2.979165e+01
890           	2.978887e+01
891           	2.978583e+01
892           	2.978343e+01
893           	2.978074e+01
894           	2.977855e+01
895           	2.977540e+01
896           	2.977246e+01
897           	2.976897e+01
898           	2.976644e+01
899           	2.976344e+01
900           	2.976075e+01
901           	2.975730e+01
902           	2.975478e+01
903           	2.975210e+01
904           	2.975081e+01
905           	2.974797e+01
906           	2.974537e+01
907           	2.974185e+01
908           	2.973927e+01
909           	2.973618e+01
910           	2.973357e+01
911           	2.973040e+01
912           	2.972818e+01
913           	2.972562e+01
914           	2.972322e+01
915           	2.972002e+01
916           	2.971756e+01
917           	2.971493e+01
918           	2.971282e+01
919           	2.970972e+01
920           	2.970689e+01
921           	2.970387e+01
922           	2.970153e+01
923           	2.969880e+01
924           	2.969632e+01
925           	2.969338e+01
926           	2.969088e+01
927           	2.968752e+01
928           	2.968471e+01
929           	2.968116e+01
930           	2.967802e+01
931           	2.967436e+01
932           	2.967170e+01
933           	2.966853e+01
934           	2.966564e+01
935           	2.966185e+01
936           	2.965873e+01
937           	2.965540e+01
938           	2.965266e+01
939           	2.964886e+01
940           	2.964534e+01
941           	2.964033e+01
942           	2.963897e+01
943           	2.963662e+01
944           	2.963400e+01
945           	2.962998e+01
946           	2.962599e+01
947           	2.962119e+01
948           	2.961728e+01
949           	2.961288e+01
950           	2.960909e+01
951           	2.960483e+01
952           	2.960117e+01
953           	2.959717e+01
954           	2.959377e+01
955           	2.958970e+01
956           	2.958621e+01
957           	2.958242e+01
958           	2.957980e+01
959           	2.957592e+01
960           	2.957266e+01
961           	2.956900e+01
962           	2.956607e+01
963           	2.956245e+01
964           	2.955888e+01
965           	2.955437e+01
966           	2.955091e+01
967           	2.954711e+01
968           	2.954379e+01
969           	2.953977e+01
970           	2.953623e+01
971           	2.953218e+01
972           	2.952873e+01
973           	2.952504e+01
974           	2.952208e+01
975           	2.952118e+01
976           	2.951810e+01
977           	2.951531e+01
978           	2.951331e+01
979           	2.951049e+01
980           	2.950790e+01
981           	2.950487e+01
982           	2.950273e+01
983           	2.950023e+01
984           	2.949789e+01
985           	2.949472e+01
986           	2.949212e+01
987           	2.948916e+01
988           	2.948695e+01
989           	2.948427e+01
990           	2.948249e+01
991           	2.948106e+01
992           	2.948068e+01
993           	2.947957e+01
994           	2.947866e+01
995           	2.947701e+01
996           	2.947609e+01
997           	2.947458e+01
998           	2.947338e+01
999           	2.947145e+01
1000          	2.947039e+01
1001          	2.946927e+01
1002          	2.946901e+01
1003          	2.946781e+01
1004          	2.946686e+01
1005          	2.946529e+01
1006          	2.946436e+01
1007          	2.946290e+01
1008          	2.946364e+01
1009          	2.946221e+01
1010          	2.946223e+01
1011          	2.946195e+01
1012          	2.946202e+01
1013          	2.946117e+01
1014          	2.946077e+01
1015          	2.946001e+01
1016          	2.945979e+01
1017          	2.945871e+01
1018          	2.945796e+01
1019          	2.945688e+01
1020          	2.945681e+01
1021          	2.945632e+01
1022          	2.945599e+01
1023          	2.945477e+01
1024          	2.945603e+01
1025          	2.945562e+01
1026          	2.945586e+01
1027          	2.945524e+01
1028          	2.945479e+01
1029          	2.945347e+01
1030          	2.945254e+01
1031          	2.945122e+01
1032          	2.945047e+01
1033          	2.944914e+01
1034          	2.944847e+01
1035          	2.944975e+01
1036          	2.944943e+01
1037          	2.944791e+01
1038          	2.944668e+01
1039          	2.944496e+01
1040          	2.944692e+01
1041          	2.944520e+01
1042          	2.944442e+01
1043          	2.944330e+01
1044          	2.944319e+01
1045          	2.944254e+01
1046          	2.944210e+01
1047          	2.944071e+01
1048          	2.943986e+01
1049          	2.943875e+01
1050          	2.943826e+01
1051          	2.943687e+01
1052          	2.943579e+01
1053          	2.943447e+01
1054          	2.943415e+01
1055          	2.943461e+01
1056          	2.943464e+01
1057          	2.943344e+01
1058          	2.943232e+01
1059          	2.943050e+01
1060          	2.942908e+01
1061          	2.942703e+01
1062          	2.942583e+01
1063          	2.942469e+01
1064          	2.942436e+01
1065          	2.942319e+01
1066          	2.942226e+01