# Region type : patch ent
# Faces  :    144
# Area   :    1.250000e-07
# Time        	areaAverage(p)
0             	0.000000e+00
1             	2.821181e+04
2             	1.319998e+04
3             	3.074250e+02
4             	-3.108921e+03
5             	-1.625135e+03
6             	2.247248e+02
7             	9.117017e+02
8             	7.861422e+02
9             	4.976561e+02
10            	3.522662e+02
11            	3.379127e+02
12            	3.589982e+02
13            	3.637835e+02
14            	3.625173e+02
15            	3.592934e+02
16            	3.517223e+02
17            	3.380382e+02
18            	3.347434e+02
19            	3.396812e+02
20            	3.416378e+02
21            	3.335885e+02
22            	3.301541e+02
23            	3.362321e+02
24            	3.413459e+02
25            	3.367337e+02
26            	3.320698e+02
27            	3.382341e+02
28            	3.455937e+02
29            	3.440554e+02
30            	3.381941e+02
31            	3.431881e+02
32            	3.515823e+02
33            	3.528591e+02
34            	3.463103e+02
35            	3.490976e+02
36            	3.573925e+02
37            	3.604061e+02
38            	3.533981e+02
39            	3.534090e+02
40            	3.612036e+02
41            	3.655543e+02
42            	3.594295e+02
43            	3.558578e+02
44            	3.620980e+02
45            	3.676871e+02
46            	3.633259e+02
47            	3.572193e+02
48            	3.613442e+02
49            	3.676905e+02
50            	3.656065e+02
51            	3.584852e+02
52            	3.605043e+02
53            	3.671222e+02
54            	3.672643e+02
55            	3.598678e+02
56            	3.599973e+02
57            	3.667832e+02
58            	3.690232e+02
59            	3.620895e+02
60            	3.599290e+02
61            	3.663815e+02
62            	3.704929e+02
63            	3.647976e+02
64            	3.604454e+02
65            	3.656478e+02
66            	3.712715e+02
67            	3.678908e+02
68            	3.622320e+02
69            	3.653012e+02
70            	3.716000e+02
71            	3.703997e+02
72            	3.643152e+02
73            	3.654098e+02
74            	3.721562e+02
75            	3.729913e+02
76            	3.672776e+02
77            	3.662600e+02
78            	3.728174e+02
79            	3.757722e+02
80            	3.708153e+02
81            	3.679723e+02
82            	3.735189e+02
83            	3.780531e+02
84            	3.742324e+02
85            	3.705107e+02
86            	3.744860e+02
87            	3.798030e+02
88            	3.773897e+02
89            	3.728242e+02
90            	3.748417e+02
91            	3.807947e+02
92            	3.801021e+02
93            	3.753359e+02
94            	3.748630e+02
95            	3.807243e+02
96            	3.817376e+02
97            	3.773911e+02
98            	3.748845e+02
99            	3.799592e+02
100           	3.825746e+02
101           	3.792293e+02
102           	3.760323e+02
103           	3.796576e+02
104           	3.834128e+02
105           	3.809272e+02
106           	3.776397e+02
107           	3.799225e+02
108           	3.845776e+02
109           	3.829351e+02
110           	3.799456e+02
111           	3.806018e+02
112           	3.857464e+02
113           	3.856085e+02
114           	3.827891e+02
115           	3.814507e+02
116           	3.863590e+02
117           	3.878831e+02
118           	3.858741e+02
119           	3.835689e+02
120           	3.872663e+02
121           	3.897550e+02
122           	3.884758e+02
123           	3.860454e+02
124           	3.884654e+02
125           	3.918709e+02
126           	3.911093e+02
127           	3.891320e+02
128           	3.899144e+02
129           	3.939007e+02
130           	3.935782e+02
131           	3.923391e+02
132           	3.915722e+02
133           	3.954479e+02
134           	3.958590e+02
135           	3.954086e+02
136           	3.939949e+02
137           	3.970573e+02
138           	3.982685e+02
139           	3.982211e+02
140           	3.965307e+02
141           	3.986267e+02
142           	4.006433e+02
143           	4.009905e+02
144           	3.995915e+02
145           	4.003456e+02
146           	4.029315e+02
147           	4.036398e+02
148           	4.031072e+02
149           	4.023236e+02
150           	4.050766e+02
151           	4.060889e+02
152           	4.067350e+02
153           	4.053543e+02
154           	4.073040e+02
155           	4.079907e+02
156           	4.095924e+02
157           	4.085153e+02
158           	4.096722e+02
159           	4.105009e+02
160           	4.122694e+02
161           	4.115972e+02
162           	4.118440e+02
163           	4.132031e+02
164           	4.150646e+02
165           	4.150643e+02
166           	4.139734e+02
167           	4.153669e+02
168           	4.174573e+02
169           	4.186234e+02
170           	4.170590e+02
171           	4.176662e+02
172           	4.192985e+02
173           	4.216357e+02
174           	4.203063e+02
175           	4.202343e+02
176           	4.211781e+02
177           	4.241993e+02
178           	4.235376e+02
179           	4.225763e+02
180           	4.229547e+02
181           	4.263443e+02
182           	4.269003e+02
183           	4.248890e+02
184           	4.249884e+02
185           	4.282884e+02
186           	4.299903e+02
187           	4.277818e+02
188           	4.271077e+02
189           	4.298607e+02
190           	4.326443e+02
191           	4.309126e+02
192           	4.294319e+02
193           	4.314443e+02
194           	4.350500e+02
195           	4.341025e+02
196           	4.319261e+02
197           	4.331823e+02
198           	4.374905e+02
199           	4.377739e+02
200           	4.346124e+02
201           	4.345973e+02
202           	4.394544e+02
203           	4.414161e+02
204           	4.380289e+02
205           	4.363848e+02
206           	4.407703e+02
207           	4.442632e+02
208           	4.416992e+02
209           	4.390545e+02
210           	4.423751e+02
211           	4.466087e+02
212           	4.450875e+02
213           	4.416443e+02
214           	4.441072e+02
215           	4.489638e+02
216           	4.488788e+02
217           	4.443499e+02
218           	4.454476e+02
219           	4.509826e+02
220           	4.525721e+02
221           	4.478730e+02
222           	4.468640e+02
223           	4.523831e+02
224           	4.556557e+02
225           	4.516751e+02
226           	4.484564e+02
227           	4.533912e+02
228           	4.580364e+02
229           	4.552403e+02
230           	4.506131e+02
231           	4.544616e+02
232           	4.599110e+02
233           	4.589281e+02
234           	4.531384e+02
235           	4.554161e+02
236           	4.613968e+02
237           	4.623328e+02
238           	4.560919e+02
239           	4.562515e+02
240           	4.623457e+02
241           	4.652230e+02
242           	4.596747e+02
243           	4.574595e+02
244           	4.632010e+02
245           	4.674709e+02
246           	4.632131e+02
247           	4.587636e+02
248           	4.639948e+02
249           	4.694742e+02
250           	4.670123e+02
251           	4.602973e+02
252           	4.642447e+02
253           	4.708239e+02
254           	4.705779e+02
255           	4.629902e+02
256           	4.645564e+02
257           	4.713127e+02
258           	4.734000e+02
259           	4.663697e+02
260           	4.653780e+02
261           	4.716561e+02
262           	4.754350e+02
263           	4.695188e+02
264           	4.662033e+02
265           	4.720815e+02
266           	4.772160e+02
267           	4.732097e+02
268           	4.673281e+02
269           	4.722658e+02
270           	4.785201e+02
271           	4.767195e+02
272           	4.688036e+02
273           	4.720443e+02
274           	4.791156e+02
275           	4.797587e+02
276           	4.714494e+02
277           	4.720868e+02
278           	4.790908e+02
279           	4.818962e+02
280           	4.745395e+02
281           	4.725580e+02
282           	4.790769e+02
283           	4.836033e+02
284           	4.780199e+02
285           	4.734021e+02
286           	4.790030e+02
287           	4.849241e+02
288           	4.814640e+02
289           	4.746365e+02
290           	4.788099e+02
291           	4.856745e+02
292           	4.848709e+02
293           	4.770057e+02
294           	4.790089e+02
295           	4.860167e+02
296           	4.873956e+02
297           	4.792789e+02
298           	4.791199e+02
299           	4.862423e+02
300           	4.895724e+02
301           	4.826215e+02
302           	4.795807e+02
303           	4.859612e+02
304           	4.910726e+02
305           	4.861238e+02
306           	4.805380e+02
307           	4.854047e+02
308           	4.917891e+02
309           	4.892887e+02
310           	4.824610e+02
311           	4.852125e+02
312           	4.919733e+02
313           	4.917221e+02
314           	4.844256e+02
315           	4.852268e+02
316           	4.920544e+02
317           	4.938653e+02
318           	4.867554e+02
319           	4.852729e+02
320           	4.918341e+02
321           	4.954355e+02
322           	4.892041e+02
323           	4.852861e+02
324           	4.909469e+02
325           	4.962409e+02
326           	4.921472e+02
327           	4.865412e+02
328           	4.900751e+02
329           	4.961600e+02
330           	4.942963e+02
331           	4.880298e+02
332           	4.894821e+02
333           	4.959122e+02
334           	4.960082e+02
335           	4.897741e+02
336           	4.890925e+02
337           	4.954475e+02
338           	4.975139e+02
339           	4.918012e+02
340           	4.889578e+02
341           	4.945359e+02
342           	4.983744e+02
343           	4.936837e+02
344           	4.896636e+02
345           	4.937285e+02
346           	4.985255e+02
347           	4.952816e+02
348           	4.904792e+02
349           	4.928010e+02
350           	4.983798e+02
351           	4.969832e+02
352           	4.918408e+02
353           	4.919547e+02
354           	4.978521e+02
355           	4.983152e+02
356           	4.935689e+02
357           	4.914239e+02
358           	4.968702e+02
359           	4.991241e+02
360           	4.952669e+02
361           	4.920468e+02
362           	4.960400e+02
363           	4.994883e+02
364           	4.964861e+02
365           	4.929037e+02
366           	4.953723e+02
367           	4.996000e+02
368           	4.972790e+02
369           	4.937127e+02
370           	4.946340e+02
371           	4.994971e+02
372           	4.985614e+02
373           	4.950729e+02
374           	4.937912e+02
375           	4.986645e+02
376           	4.995082e+02
377           	4.966684e+02
378           	4.940521e+02
379           	4.977911e+02
380           	4.997206e+02
381           	4.976876e+02
382           	4.947378e+02
383           	4.971447e+02
384           	4.999231e+02
385           	4.983988e+02
386           	4.956372e+02
387           	4.965105e+02
388           	5.000786e+02
389           	4.989981e+02
390           	4.968792e+02
391           	4.959906e+02
392           	4.996356e+02
393           	4.992902e+02
394           	4.979294e+02
395           	4.961032e+02
396           	4.990512e+02
397           	4.996056e+02
398           	4.987328e+02
399           	4.964645e+02
400           	4.984235e+02
401           	4.997694e+02
402           	4.992801e+02
403           	4.970126e+02
404           	4.977365e+02
405           	4.998126e+02
406           	4.996890e+02
407           	4.981534e+02
408           	4.972179e+02
409           	4.995833e+02
410           	4.998211e+02
411           	4.993616e+02
412           	4.974386e+02
413           	4.991893e+02
414           	4.992769e+02
415           	4.999093e+02
416           	4.980790e+02
417           	4.989617e+02
418           	4.990727e+02
419           	4.999798e+02
420           	4.983949e+02
421           	4.984822e+02
422           	4.992404e+02
423           	5.002383e+02
424           	4.992283e+02
425           	4.979677e+02
426           	4.989102e+02
427           	5.001709e+02
428           	5.001834e+02
429           	4.980695e+02
430           	4.984522e+02
431           	4.995100e+02
432           	5.008235e+02
433           	4.987593e+02
434           	4.984417e+02
435           	4.988489e+02
436           	5.009338e+02
437           	4.993309e+02
438           	4.982300e+02
439           	4.981381e+02
440           	5.007105e+02
441           	5.002651e+02
442           	4.980964e+02
443           	4.977857e+02
444           	5.003168e+02
445           	5.009191e+02
446           	4.981878e+02
447           	4.973579e+02
448           	4.995664e+02
449           	5.013328e+02
450           	4.988545e+02
451           	4.971501e+02
452           	4.986398e+02
453           	5.012895e+02
454           	4.994249e+02
455           	4.970308e+02
456           	4.978364e+02
457           	5.012431e+02
458           	5.004900e+02
459           	4.971251e+02
460           	4.967660e+02
461           	5.007321e+02
462           	5.014719e+02
463           	4.974897e+02
464           	4.956682e+02
465           	4.994825e+02
466           	5.018880e+02
467           	4.984701e+02
468           	4.955300e+02
469           	4.982989e+02
470           	5.015595e+02
471           	4.990719e+02
472           	4.953669e+02
473           	4.973229e+02
474           	5.012480e+02
475           	5.001066e+02
476           	4.953464e+02
477           	4.960876e+02
478           	5.006930e+02
479           	5.010928e+02
480           	4.958199e+02
481           	4.947628e+02
482           	4.996517e+02
483           	5.018126e+02
484           	4.970281e+02
485           	4.937047e+02
486           	4.981231e+02
487           	5.017839e+02
488           	4.980624e+02
489           	4.932457e+02
490           	4.966705e+02
491           	5.012706e+02
492           	4.992768e+02
493           	4.933400e+02
494           	4.953331e+02
495           	5.004768e+02
496           	5.002877e+02
497           	4.935986e+02
498           	4.937839e+02
499           	4.992873e+02
500           	5.010998e+02
501           	4.948133e+02
502           	4.926031e+02
503           	4.978594e+02
504           	5.012173e+02
505           	4.961399e+02
506           	4.917117e+02
507           	4.964569e+02
508           	5.010584e+02
509           	4.976512e+02
510           	4.909886e+02
511           	4.947066e+02
512           	5.004506e+02
513           	4.991066e+02
514           	4.912032e+02
515           	4.928824e+02
516           	4.990970e+02
517           	5.001284e+02
518           	4.924853e+02
519           	4.915953e+02
520           	4.974525e+02
521           	5.003470e+02
522           	4.937274e+02
523           	4.905273e+02
524           	4.959589e+02
525           	5.002810e+02
526           	4.953656e+02
527           	4.897363e+02
528           	4.944774e+02
529           	4.999400e+02
530           	4.971367e+02
531           	4.891770e+02
532           	4.925556e+02
533           	4.990595e+02
534           	4.986615e+02
535           	4.898831e+02
536           	4.907629e+02
537           	4.974061e+02
538           	4.993136e+02
539           	4.913166e+02
540           	4.895353e+02
541           	4.956771e+02
542           	4.993684e+02
543           	4.929112e+02
544           	4.885981e+02
545           	4.940212e+02
546           	4.991298e+02
547           	4.946769e+02
548           	4.878639e+02
549           	4.921236e+02
550           	4.984008e+02
551           	4.965261e+02
552           	4.883468e+02
553           	4.905152e+02
554           	4.970823e+02
555           	4.975380e+02
556           	4.889451e+02
557           	4.889725e+02
558           	4.956561e+02
559           	4.980855e+02
560           	4.902852e+02
561           	4.876112e+02
562           	4.938592e+02
563           	4.981443e+02
564           	4.922383e+02
565           	4.867372e+02
566           	4.917431e+02
567           	4.975440e+02
568           	4.940291e+02
569           	4.869717e+02
570           	4.899414e+02
571           	4.963179e+02
572           	4.951902e+02
573           	4.875346e+02
574           	4.885545e+02
575           	4.950471e+02
576           	4.960583e+02
577           	4.883493e+02
578           	4.872249e+02
579           	4.936679e+02
580           	4.965455e+02
581           	4.895702e+02
582           	4.858944e+02
583           	4.917221e+02
584           	4.964551e+02
585           	4.914703e+02
586           	4.857937e+02
587           	4.896605e+02
588           	4.954236e+02
589           	4.928118e+02
590           	4.863009e+02
591           	4.880582e+02
592           	4.942220e+02
593           	4.936252e+02
594           	4.869029e+02
595           	4.866426e+02
596           	4.929673e+02
597           	4.943699e+02
598           	4.880964e+02
599           	4.855694e+02
600           	4.913177e+02
601           	4.946381e+02
602           	4.892754e+02
603           	4.852378e+02
604           	4.896316e+02
605           	4.941260e+02
606           	4.902223e+02
607           	4.852944e+02
608           	4.879867e+02
609           	4.933063e+02
610           	4.912625e+02
611           	4.857262e+02
612           	4.863335e+02
613           	4.921932e+02
614           	4.920616e+02
615           	4.868173e+02
616           	4.850795e+02
617           	4.906649e+02
618           	4.923873e+02
619           	4.879132e+02
620           	4.846987e+02
621           	4.890716e+02
622           	4.922379e+02
623           	4.887379e+02
624           	4.849740e+02
625           	4.877713e+02
626           	4.917607e+02
627           	4.889780e+02
628           	4.850603e+02
629           	4.864103e+02
630           	4.911700e+02
631           	4.896944e+02
632           	4.858020e+02
633           	4.849988e+02
634           	4.899479e+02
635           	4.902591e+02
636           	4.868416e+02
637           	4.843037e+02
638           	4.884173e+02
639           	4.900821e+02
640           	4.875653e+02
641           	4.844518e+02
642           	4.872068e+02
643           	4.897424e+02
644           	4.878136e+02
645           	4.847164e+02
646           	4.860289e+02
647           	4.894939e+02
648           	4.880535e+02
649           	4.854934e+02
650           	4.850334e+02
651           	4.887376e+02
652           	4.879672e+02
653           	4.860911e+02
654           	4.843642e+02
655           	4.876560e+02
656           	4.879829e+02
657           	4.866787e+02
658           	4.842955e+02
659           	4.865908e+02
660           	4.877556e+02
661           	4.869031e+02
662           	4.843531e+02
663           	4.854841e+02
664           	4.874655e+02
665           	4.870301e+02
666           	4.850866e+02
667           	4.845966e+02
668           	4.869866e+02
669           	4.869280e+02
670           	4.859373e+02
671           	4.841155e+02
672           	4.862117e+02
673           	4.862442e+02
674           	4.864369e+02
675           	4.844454e+02
676           	4.856252e+02
677           	4.856118e+02
678           	4.862514e+02
679           	4.844575e+02
680           	4.848929e+02
681           	4.855273e+02
682           	4.862708e+02
683           	4.849411e+02
684           	4.841163e+02
685           	4.851000e+02
686           	4.860971e+02
687           	4.856107e+02
688           	4.836256e+02
689           	4.843483e+02
690           	4.853940e+02
691           	4.862490e+02
692           	4.840701e+02
693           	4.840682e+02
694           	4.845357e+02
695           	4.862916e+02
696           	4.844559e+02
697           	4.837035e+02
698           	4.836264e+02
699           	4.859647e+02
700           	4.851687e+02
701           	4.834215e+02
702           	4.831809e+02
703           	4.855055e+02
704           	4.856641e+02
705           	4.830864e+02
706           	4.826168e+02
707           	4.848229e+02
708           	4.861514e+02
709           	4.835724e+02
710           	4.822225e+02
711           	4.837982e+02
712           	4.861207e+02
713           	4.840735e+02
714           	4.820169e+02
715           	4.828772e+02
716           	4.860085e+02
717           	4.849171e+02
718           	4.820303e+02
719           	4.819154e+02
720           	4.855999e+02
721           	4.858441e+02
722           	4.820604e+02
723           	4.806961e+02
724           	4.845347e+02
725           	4.864770e+02
726           	4.829515e+02
727           	4.804192e+02
728           	4.833231e+02
729           	4.862789e+02
730           	4.836152e+02
731           	4.803106e+02
732           	4.823411e+02
733           	4.859811e+02
734           	4.844715e+02
735           	4.802432e+02
736           	4.812748e+02
737           	4.855822e+02
738           	4.855169e+02
739           	4.804707e+02
740           	4.799947e+02
741           	4.848338e+02
742           	4.864805e+02
743           	4.816322e+02
744           	4.789130e+02
745           	4.834496e+02
746           	4.867269e+02
747           	4.828049e+02
748           	4.784459e+02
749           	4.820349e+02
750           	4.863614e+02
751           	4.839425e+02
752           	4.785456e+02
753           	4.808892e+02
754           	4.857890e+02
755           	4.851171e+02
756           	4.787011e+02
757           	4.794892e+02
758           	4.849321e+02
759           	4.862080e+02
760           	4.798597e+02
761           	4.783058e+02
762           	4.836539e+02
763           	4.866402e+02
764           	4.813799e+02
765           	4.775714e+02
766           	4.824102e+02
767           	4.866575e+02
768           	4.828240e+02
769           	4.768309e+02
770           	4.809184e+02
771           	4.863762e+02
772           	4.845084e+02
773           	4.769445e+02
774           	4.792410e+02
775           	4.853870e+02
776           	4.858466e+02
777           	4.781919e+02
778           	4.779717e+02
779           	4.839254e+02
780           	4.864168e+02
781           	4.796314e+02
782           	4.770533e+02
783           	4.825741e+02
784           	4.865508e+02
785           	4.811858e+02
786           	4.762863e+02
787           	4.813418e+02
788           	4.865127e+02
789           	4.832027e+02
790           	4.757911e+02
791           	4.796768e+02
792           	4.859980e+02
793           	4.850004e+02
794           	4.763117e+02
795           	4.779108e+02
796           	4.846332e+02
797           	4.860737e+02
798           	4.779235e+02
799           	4.767979e+02
800           	4.830586e+02
801           	4.863689e+02
802           	4.795081e+02
803           	4.759354e+02
804           	4.816524e+02
805           	4.864413e+02
806           	4.814929e+02
807           	4.753113e+02
808           	4.800109e+02
809           	4.860722e+02
810           	4.835702e+02
811           	4.756304e+02
812           	4.784609e+02
813           	4.850506e+02
814           	4.850275e+02
815           	4.764426e+02
816           	4.771112e+02
817           	4.838440e+02
818           	4.858413e+02
819           	4.776961e+02
820           	4.758138e+02
821           	4.823440e+02
822           	4.862633e+02
823           	4.798744e+02
824           	4.750875e+02
825           	4.805235e+02
826           	4.860401e+02
827           	4.819128e+02
828           	4.751470e+02
829           	4.787771e+02
830           	4.851492e+02
831           	4.834975e+02
832           	4.758949e+02
833           	4.775303e+02
834           	4.840818e+02
835           	4.846634e+02
836           	4.767943e+02
837           	4.763587e+02
838           	4.829721e+02
839           	4.854817e+02
840           	4.781625e+02
841           	4.752280e+02
842           	4.814059e+02
843           	4.857844e+02
844           	4.802188e+02
845           	4.748956e+02
846           	4.794331e+02
847           	4.851469e+02
848           	4.820302e+02
849           	4.755859e+02
850           	4.779534e+02
851           	4.841427e+02
852           	4.831282e+02
853           	4.762893e+02
854           	4.766751e+02
855           	4.831397e+02
856           	4.841471e+02
857           	4.776347e+02
858           	4.757844e+02
859           	4.818289e+02
860           	4.847959e+02
861           	4.790200e+02
862           	4.752923e+02
863           	4.802597e+02
864           	4.846656e+02
865           	4.803149e+02
866           	4.755062e+02
867           	4.787870e+02
868           	4.840777e+02
869           	4.816241e+02
870           	4.760337e+02
871           	4.772790e+02
872           	4.832055e+02
873           	4.827127e+02
874           	4.772715e+02
875           	4.761870e+02
876           	4.820049e+02
877           	4.833672e+02
878           	4.785249e+02
879           	4.756025e+02
880           	4.805272e+02
881           	4.835763e+02
882           	4.797539e+02
883           	4.760425e+02
884           	4.793515e+02
885           	4.833068e+02
886           	4.802745e+02
887           	4.763166e+02
888           	4.782013e+02
889           	4.829272e+02
890           	4.811198e+02
891           	4.771058e+02
892           	4.769736e+02
893           	4.820742e+02
894           	4.820073e+02
895           	4.782653e+02
896           	4.760825e+02
897           	4.806920e+02
898           	4.822248e+02
899           	4.793874e+02
900           	4.763302e+02
901           	4.795782e+02
902           	4.820432e+02
903           	4.798951e+02
904           	4.767521e+02
905           	4.785926e+02
906           	4.819854e+02
907           	4.803510e+02
908           	4.775834e+02
909           	4.777346e+02
910           	4.815609e+02
911           	4.804995e+02
912           	4.783240e+02
913           	4.769510e+02
914           	4.806670e+02
915           	4.808481e+02
916           	4.792310e+02
917           	4.769396e+02
918           	4.797045e+02
919           	4.808192e+02
920           	4.797357e+02
921           	4.771595e+02
922           	4.787866e+02
923           	4.806771e+02
924           	4.800295e+02
925           	4.778398e+02
926           	4.779904e+02
927           	4.804723e+02
928           	4.801878e+02
929           	4.788388e+02
930           	4.773782e+02
931           	4.798960e+02
932           	4.798999e+02
933           	4.796931e+02
934           	4.777350e+02
935           	4.793695e+02
936           	4.793478e+02
937           	4.797806e+02
938           	4.779644e+02
939           	4.788506e+02
940           	4.793936e+02
941           	4.799272e+02
942           	4.783505e+02
943           	4.781357e+02
944           	4.792497e+02
945           	4.800286e+02
946           	4.791736e+02
947           	4.775373e+02
948           	4.786615e+02
949           	4.796873e+02
950           	4.800842e+02
951           	4.779521e+02
952           	4.783997e+02
953           	4.789878e+02
954           	4.804436e+02
955           	4.785197e+02
956           	4.782058e+02
957           	4.782087e+02
958           	4.803092e+02
959           	4.791685e+02
960           	4.779574e+02
961           	4.778918e+02
962           	4.800630e+02
963           	4.798621e+02
964           	4.775945e+02
965           	4.775023e+02
966           	4.796961e+02
967           	4.805877e+02
968           	4.780324e+02
969           	4.771338e+02
970           	4.788396e+02
971           	4.808483e+02
972           	4.786995e+02
973           	4.770374e+02
974           	4.780165e+02
975           	4.808748e+02
976           	4.794480e+02
977           	4.770849e+02
978           	4.772908e+02
979           	4.807384e+02
980           	4.805475e+02
981           	4.771082e+02
982           	4.761800e+02
983           	4.799859e+02
984           	4.814468e+02
985           	4.779134e+02
986           	4.758517e+02
987           	4.789084e+02
988           	4.815534e+02
989           	4.787556e+02
990           	4.758674e+02
991           	4.780257e+02
992           	4.813858e+02
993           	4.795159e+02
994           	4.758126e+02
995           	4.771605e+02
996           	4.812104e+02
997           	4.807183e+02
998           	4.760409e+02
999           	4.760448e+02
1000          	4.807484e+02
1001          	4.818709e+02
1002          	4.770459e+02
1003          	4.749557e+02
1004          	4.795858e+02
1005          	4.824541e+02
1006          	4.783622e+02
1007          	4.744641e+02
1008          	4.782339e+02
1009          	4.822784e+02
1010          	4.794630e+02
1011          	4.745779e+02
1012          	4.772394e+02
1013          	4.819061e+02
1014          	4.807765e+02
1015          	4.748153e+02
1016          	4.760494e+02
1017          	4.812999e+02
1018          	4.820098e+02
1019          	4.757048e+02
1020          	4.748203e+02
1021          	4.802104e+02
1022          	4.827665e+02
1023          	4.773280e+02
1024          	4.741323e+02
1025          	4.790670e+02
1026          	4.829489e+02
1027          	4.787327e+02
1028          	4.734024e+02
1029          	4.777641e+02
1030          	4.829057e+02
1031          	4.805313e+02
1032          	4.734811e+02
1033          	4.762444e+02
1034          	4.821815e+02
1035          	4.820222e+02
1036          	4.744364e+02
1037          	4.749103e+02
1038          	4.809222e+02
1039          	4.829307e+02
1040          	4.759721e+02
1041          	4.740178e+02
1042          	4.796255e+02
1043          	4.832245e+02
1044          	4.774780e+02
1045          	4.732492e+02
1046          	4.785055e+02
1047          	4.833696e+02
1048          	4.795838e+02
1049          	4.728383e+02
1050          	4.770689e+02
1051          	4.830857e+02
1052          	4.814702e+02
1053          	4.729644e+02
1054          	4.752652e+02
1055          	4.820041e+02
1056          	4.829017e+02
1057          	4.745992e+02
1058          	4.741167e+02
1059          	4.804766e+02
1060          	4.833791e+02
1061          	4.761973e+02
1062          	4.732708e+02
1063          	4.791516e+02
1064          	4.836103e+02
1065          	4.782235e+02
1066          	4.726998e+02