# Residuals   
# Time        	p             	Ux            	Uy            	Uz            
0             	N/A	N/A
1             	1.000000e+00	1.000000e+00	1.000000e+00	1.000000e+00
2             	3.489667e-02	5.271661e-01	4.175951e-01	4.144193e-01
3             	5.702692e-02	1.849866e-01	1.940081e-01	1.674962e-01
4             	7.961450e-02	9.010041e-02	1.490086e-01	4.970486e-01
5             	2.187068e-01	4.288768e-02	1.376441e-01	5.124210e-01
6             	1.330866e-01	5.947760e-02	1.465696e-01	3.820539e-01
7             	8.208526e-02	1.017407e-01	1.524091e-01	2.430687e-01
8             	6.830156e-02	1.256811e-01	1.465548e-01	1.500110e-01
9             	7.087659e-02	1.145045e-01	1.395661e-01	2.585999e-01
10            	9.124757e-02	6.964069e-02	1.214008e-01	3.865812e-01
11            	1.477109e-01	4.128171e-02	1.032305e-01	3.678301e-01
12            	8.199550e-02	5.203001e-02	8.971221e-02	2.749751e-01
13            	6.308269e-02	5.859147e-02	7.134105e-02	1.673025e-01
14            	5.933283e-02	4.930250e-02	5.277539e-02	1.021693e-01
15            	6.466325e-02	3.289542e-02	4.245368e-02	1.642378e-01
16            	8.034245e-02	1.865074e-02	3.591322e-02	2.064249e-01
17            	1.031538e-01	1.427631e-02	3.199034e-02	1.875792e-01
18            	8.341786e-02	1.801417e-02	2.892866e-02	1.359148e-01
19            	7.713816e-02	2.032718e-02	2.415193e-02	7.869650e-02
20            	7.893568e-02	1.746865e-02	1.960982e-02	6.353594e-02
21            	8.690794e-02	1.194903e-02	1.766237e-02	9.078258e-02
22            	9.649051e-02	9.843574e-03	1.731682e-02	1.011897e-01
23            	8.437258e-02	1.145596e-02	1.695396e-02	8.844253e-02
24            	7.761214e-02	1.266998e-02	1.540138e-02	6.390721e-02
25            	7.521192e-02	1.226013e-02	1.336174e-02	4.389140e-02
26            	7.598810e-02	1.077224e-02	1.201259e-02	4.512927e-02
27            	7.892275e-02	9.020568e-03	1.106480e-02	5.261073e-02
28            	8.256180e-02	7.615197e-03	1.002975e-02	5.292057e-02
29            	8.526571e-02	6.834051e-03	8.926162e-03	4.634076e-02
30            	8.607316e-02	6.440738e-03	7.951477e-03	3.798949e-02
31            	8.478941e-02	6.190681e-03	7.400859e-03	3.326544e-02
32            	8.206809e-02	6.164028e-03	7.352120e-03	3.375189e-02
33            	7.875403e-02	6.315852e-03	7.435971e-03	3.461702e-02
34            	7.560213e-02	6.478441e-03	7.408534e-03	3.342742e-02
35            	7.302905e-02	6.527594e-03	7.234957e-03	3.088944e-02
36            	7.112389e-02	6.422280e-03	6.985720e-03	2.873183e-02
37            	6.978413e-02	6.192481e-03	6.724340e-03	2.795500e-02
38            	6.881562e-02	5.903715e-03	6.465628e-03	2.782465e-02
39            	6.797310e-02	5.621423e-03	6.207297e-03	2.739255e-02
40            	6.704133e-02	5.385663e-03	5.961285e-03	2.646333e-02
41            	6.588313e-02	5.208548e-03	5.748703e-03	2.533830e-02
42            	6.450115e-02	5.082260e-03	5.582039e-03	2.440054e-02
43            	6.293707e-02	4.993307e-03	5.453627e-03	2.372176e-02
44            	6.128192e-02	4.924514e-03	5.346086e-03	2.317072e-02
45            	5.962829e-02	4.859516e-03	5.243203e-03	2.260763e-02
46            	5.804142e-02	4.786336e-03	5.136618e-03	2.201931e-02
47            	5.654859e-02	4.700527e-03	5.025628e-03	2.146043e-02
48            	5.514953e-02	4.603650e-03	4.912447e-03	2.095913e-02
49            	5.383162e-02	4.501304e-03	4.799801e-03	2.049448e-02
50            	5.256681e-02	4.399792e-03	4.689796e-03	2.002991e-02
51            	5.132809e-02	4.304035e-03	4.584687e-03	1.955785e-02
52            	5.009702e-02	4.216976e-03	4.486733e-03	1.908498e-02
53            	4.887145e-02	4.138343e-03	4.396055e-03	1.863085e-02
54            	4.765039e-02	4.067037e-03	4.311923e-03	1.819923e-02
55            	4.644040e-02	4.001123e-03	4.233348e-03	1.779051e-02
56            	4.525738e-02	3.938010e-03	4.158575e-03	1.740340e-02
57            	4.410577e-02	3.876512e-03	4.086720e-03	1.703363e-02
58            	4.299255e-02	3.815697e-03	4.017745e-03	1.668540e-02
59            	4.191776e-02	3.755483e-03	3.949730e-03	1.634528e-02
60            	4.087930e-02	3.696048e-03	3.883543e-03	1.601447e-02
61            	3.987426e-02	3.638489e-03	3.819899e-03	1.569752e-02
62            	3.890032e-02	3.583069e-03	3.758804e-03	1.539085e-02
63            	3.795450e-02	3.530004e-03	3.700180e-03	1.509470e-02
64            	3.703604e-02	3.479340e-03	3.643941e-03	1.480927e-02
65            	3.614466e-02	3.430885e-03	3.590057e-03	1.453540e-02
66            	3.528105e-02	3.384367e-03	3.538363e-03	1.427298e-02
67            	3.444507e-02	3.339537e-03	3.488745e-03	1.402222e-02
68            	3.363506e-02	3.296334e-03	3.440918e-03	1.378268e-02
69            	3.285418e-02	3.254115e-03	3.393950e-03	1.355147e-02
70            	3.210056e-02	3.213000e-03	3.348488e-03	1.332466e-02
71            	3.137303e-02	3.173161e-03	3.304543e-03	1.310879e-02
72            	3.067106e-02	3.134532e-03	3.261990e-03	1.290006e-02
73            	2.999324e-02	3.097108e-03	3.220738e-03	1.269881e-02
74            	2.933864e-02	3.060873e-03	3.180775e-03	1.250510e-02
75            	2.870637e-02	3.025794e-03	3.142072e-03	1.231878e-02
76            	2.809576e-02	2.991823e-03	3.104570e-03	1.213929e-02
77            	2.750674e-02	2.959169e-03	3.069813e-03	1.197084e-02
78            	2.693655e-02	2.927252e-03	3.033456e-03	1.180279e-02
79            	2.638592e-02	2.895975e-03	2.998438e-03	1.164076e-02
80            	2.585418e-02	2.865626e-03	2.964498e-03	1.148049e-02
81            	2.534057e-02	2.836187e-03	2.931726e-03	1.132826e-02
82            	2.484416e-02	2.807530e-03	2.899842e-03	1.118028e-02
83            	2.436436e-02	2.779632e-03	2.868736e-03	1.103715e-02
84            	2.390055e-02	2.752458e-03	2.838413e-03	1.089855e-02
85            	2.345213e-02	2.725991e-03	2.808871e-03	1.076465e-02
86            	2.301861e-02	2.700210e-03	2.780116e-03	1.063515e-02
87            	2.259959e-02	2.675179e-03	2.752642e-03	1.051128e-02
88            	2.219313e-02	2.650776e-03	2.725138e-03	1.038996e-02
89            	2.179998e-02	2.626853e-03	2.698493e-03	1.027562e-02
90            	2.141909e-02	2.603448e-03	2.671746e-03	1.015787e-02
91            	2.105012e-02	2.580423e-03	2.645796e-03	1.004135e-02
92            	2.069237e-02	2.558044e-03	2.620450e-03	9.932033e-03
93            	2.034577e-02	2.536193e-03	2.595741e-03	9.825327e-03
94            	2.000997e-02	2.514814e-03	2.571577e-03	9.721656e-03
95            	1.968453e-02	2.493898e-03	2.547919e-03	9.621106e-03
96            	1.936906e-02	2.473424e-03	2.524754e-03	9.523589e-03
97            	1.906309e-02	2.453388e-03	2.502113e-03	9.428884e-03
98            	1.876665e-02	2.433978e-03	2.480991e-03	9.339595e-03
99            	1.847767e-02	2.414851e-03	2.458737e-03	9.249464e-03
100           	1.819738e-02	2.395901e-03	2.437261e-03	9.163794e-03
101           	1.792457e-02	2.377394e-03	2.415756e-03	9.075640e-03
102           	1.765946e-02	2.359053e-03	2.394824e-03	8.986731e-03
103           	1.740142e-02	2.341180e-03	2.374316e-03	8.903760e-03
104           	1.715056e-02	2.323665e-03	2.354260e-03	8.822213e-03
105           	1.690648e-02	2.306464e-03	2.334561e-03	8.742568e-03
106           	1.666901e-02	2.289559e-03	2.315214e-03	8.664961e-03
107           	1.643781e-02	2.272946e-03	2.296197e-03	8.589337e-03
108           	1.621277e-02	2.256621e-03	2.277532e-03	8.515434e-03
109           	1.599373e-02	2.240614e-03	2.259413e-03	8.443817e-03
110           	1.577981e-02	2.224954e-03	2.241509e-03	8.373775e-03
111           	1.557166e-02	2.209385e-03	2.223627e-03	8.305651e-03
112           	1.536844e-02	2.194161e-03	2.205940e-03	8.237430e-03
113           	1.517010e-02	2.178937e-03	2.188428e-03	8.166295e-03
114           	1.497618e-02	2.164065e-03	2.171189e-03	8.100146e-03
115           	1.478696e-02	2.149443e-03	2.154329e-03	8.034720e-03
116           	1.460220e-02	2.135031e-03	2.137728e-03	7.970630e-03
117           	1.442196e-02	2.120821e-03	2.121391e-03	7.907932e-03
118           	1.424604e-02	2.106812e-03	2.105309e-03	7.846536e-03
119           	1.407422e-02	2.093001e-03	2.089479e-03	7.786288e-03
120           	1.390661e-02	2.079389e-03	2.073895e-03	7.727011e-03
121           	1.374291e-02	2.066007e-03	2.058729e-03	7.669557e-03
122           	1.358240e-02	2.052947e-03	2.043955e-03	7.614561e-03
123           	1.342540e-02	2.039842e-03	2.028725e-03	7.559155e-03
124           	1.327171e-02	2.026779e-03	2.013715e-03	7.499734e-03
125           	1.312083e-02	2.013998e-03	1.999045e-03	7.444556e-03
126           	1.297330e-02	2.001391e-03	1.984632e-03	7.389998e-03
127           	1.282872e-02	1.988941e-03	1.970408e-03	7.336190e-03
128           	1.268738e-02	1.976642e-03	1.956406e-03	7.283615e-03
129           	1.254917e-02	1.964491e-03	1.942603e-03	7.232094e-03
130           	1.241378e-02	1.952486e-03	1.928995e-03	7.181385e-03
131           	1.228118e-02	1.940629e-03	1.915597e-03	7.131485e-03
132           	1.215131e-02	1.928924e-03	1.902425e-03	7.082549e-03
133           	1.202423e-02	1.917417e-03	1.889632e-03	7.035380e-03
134           	1.190006e-02	1.906266e-03	1.877721e-03	6.991542e-03
135           	1.177728e-02	1.894912e-03	1.864630e-03	6.941408e-03
136           	1.165684e-02	1.883430e-03	1.851458e-03	6.893218e-03
137           	1.153867e-02	1.872337e-03	1.838840e-03	6.845253e-03
138           	1.142278e-02	1.861370e-03	1.826577e-03	6.798207e-03
139           	1.130907e-02	1.850509e-03	1.814415e-03	6.752200e-03
140           	1.119742e-02	1.839778e-03	1.802405e-03	6.706823e-03
141           	1.108769e-02	1.829167e-03	1.790569e-03	6.662036e-03
142           	1.098007e-02	1.818668e-03	1.778920e-03	6.617944e-03
143           	1.087455e-02	1.808300e-03	1.767449e-03	6.574562e-03
144           	1.077117e-02	1.798093e-03	1.756243e-03	6.532557e-03
145           	1.066961e-02	1.788062e-03	1.745142e-03	6.491810e-03
146           	1.057011e-02	1.777928e-03	1.734074e-03	6.447297e-03
147           	1.047133e-02	1.768091e-03	1.723214e-03	6.405977e-03
148           	1.037471e-02	1.758139e-03	1.712058e-03	6.363328e-03
149           	1.027974e-02	1.748409e-03	1.701268e-03	6.320924e-03
150           	1.018635e-02	1.738759e-03	1.690676e-03	6.279345e-03
151           	1.009464e-02	1.729204e-03	1.680168e-03	6.238353e-03
152           	1.000447e-02	1.719761e-03	1.669804e-03	6.197801e-03
153           	9.915870e-03	1.710421e-03	1.659599e-03	6.157736e-03
154           	9.829082e-03	1.701187e-03	1.649548e-03	6.118178e-03
155           	9.743920e-03	1.692097e-03	1.639729e-03	6.079802e-03
156           	9.660052e-03	1.683165e-03	1.629993e-03	6.042640e-03
157           	9.577553e-03	1.674066e-03	1.620116e-03	6.001205e-03
158           	9.496300e-03	1.665192e-03	1.610432e-03	5.963097e-03
159           	9.416571e-03	1.656449e-03	1.601092e-03	5.925194e-03
160           	9.337633e-03	1.647875e-03	1.591906e-03	5.887885e-03
161           	9.260254e-03	1.639134e-03	1.582289e-03	5.849799e-03
162           	9.184183e-03	1.630610e-03	1.573030e-03	5.811894e-03
163           	9.109058e-03	1.622151e-03	1.563947e-03	5.774653e-03
164           	9.035096e-03	1.613776e-03	1.554936e-03	5.737894e-03
165           	8.962300e-03	1.605502e-03	1.546057e-03	5.701610e-03
166           	8.890773e-03	1.597353e-03	1.537397e-03	5.666459e-03
167           	8.820307e-03	1.589342e-03	1.528814e-03	5.632576e-03
168           	8.750972e-03	1.581149e-03	1.520075e-03	5.594447e-03
169           	8.682428e-03	1.573162e-03	1.511503e-03	5.559450e-03
170           	8.614918e-03	1.565273e-03	1.503126e-03	5.524265e-03
171           	8.548413e-03	1.557448e-03	1.494871e-03	5.489498e-03
172           	8.483213e-03	1.549729e-03	1.486852e-03	5.455598e-03
173           	8.418566e-03	1.542178e-03	1.478990e-03	5.422333e-03
174           	8.355008e-03	1.534439e-03	1.470682e-03	5.388108e-03
175           	8.292361e-03	1.526908e-03	1.462710e-03	5.354147e-03
176           	8.230423e-03	1.519443e-03	1.454922e-03	5.321015e-03
177           	8.169382e-03	1.512080e-03	1.447281e-03	5.288889e-03
178           	8.109133e-03	1.504861e-03	1.439698e-03	5.257885e-03
179           	8.049758e-03	1.497450e-03	1.431969e-03	5.222713e-03
180           	7.991070e-03	1.490234e-03	1.424393e-03	5.190604e-03
181           	7.933243e-03	1.483099e-03	1.417005e-03	5.158241e-03
182           	7.876161e-03	1.476031e-03	1.409714e-03	5.126359e-03
183           	7.819955e-03	1.469023e-03	1.402520e-03	5.094881e-03
184           	7.764657e-03	1.462084e-03	1.395448e-03	5.063756e-03
185           	7.710283e-03	1.455240e-03	1.388585e-03	5.033201e-03
186           	7.656182e-03	1.448552e-03	1.381906e-03	5.003164e-03
187           	7.603041e-03	1.441681e-03	1.374797e-03	4.972333e-03
188           	7.550711e-03	1.435036e-03	1.368092e-03	4.942360e-03
189           	7.498772e-03	1.428495e-03	1.361503e-03	4.913839e-03
190           	7.447534e-03	1.421757e-03	1.354707e-03	4.881235e-03
191           	7.396654e-03	1.415195e-03	1.348046e-03	4.851425e-03
192           	7.346677e-03	1.408740e-03	1.341585e-03	4.821576e-03
193           	7.297341e-03	1.402320e-03	1.335190e-03	4.792046e-03
194           	7.248791e-03	1.395942e-03	1.328880e-03	4.762924e-03
195           	7.200923e-03	1.389622e-03	1.322666e-03	4.734304e-03
196           	7.153766e-03	1.383377e-03	1.316556e-03	4.706131e-03
197           	7.107266e-03	1.377193e-03	1.310554e-03	4.678258e-03
198           	7.061563e-03	1.371082e-03	1.304745e-03	4.651031e-03
199           	7.017904e-03	1.367611e-03	1.308726e-03	4.648238e-03
200           	6.972512e-03	1.359949e-03	1.294742e-03	4.605312e-03
201           	6.927902e-03	1.353123e-03	1.287780e-03	4.572621e-03
202           	6.883841e-03	1.347090e-03	1.281607e-03	4.544612e-03
203           	6.840258e-03	1.341165e-03	1.275884e-03	4.516883e-03
204           	6.797095e-03	1.335282e-03	1.270239e-03	4.489965e-03
205           	6.754548e-03	1.329450e-03	1.264670e-03	4.463639e-03
206           	6.712517e-03	1.323684e-03	1.259171e-03	4.437670e-03
207           	6.671070e-03	1.317972e-03	1.253752e-03	4.412122e-03
208           	6.630196e-03	1.312316e-03	1.248409e-03	4.387007e-03
209           	6.589859e-03	1.306719e-03	1.243165e-03	4.362366e-03
210           	6.550124e-03	1.301210e-03	1.238087e-03	4.338735e-03
211           	6.510829e-03	1.295811e-03	1.233072e-03	4.316347e-03
212           	6.472188e-03	1.290218e-03	1.227980e-03	4.290484e-03
213           	6.433402e-03	1.284892e-03	1.223061e-03	4.267723e-03
214           	6.395144e-03	1.279367e-03	1.217759e-03	4.243613e-03
215           	6.357265e-03	1.274010e-03	1.212740e-03	4.219650e-03
216           	6.319782e-03	1.268687e-03	1.207856e-03	4.196383e-03
217           	6.282729e-03	1.263409e-03	1.202986e-03	4.173518e-03
218           	6.246079e-03	1.258188e-03	1.198175e-03	4.150941e-03
219           	6.209893e-03	1.253012e-03	1.193443e-03	4.128670e-03
220           	6.174218e-03	1.247889e-03	1.188798e-03	4.106879e-03
221           	6.139129e-03	1.242860e-03	1.184306e-03	4.086052e-03
222           	6.104369e-03	1.237932e-03	1.179858e-03	4.066393e-03
223           	6.070001e-03	1.232780e-03	1.175203e-03	4.042938e-03
224           	6.035837e-03	1.227806e-03	1.170666e-03	4.022312e-03
225           	6.002147e-03	1.222901e-03	1.166337e-03	4.001622e-03
226           	5.969398e-03	1.218251e-03	1.162870e-03	3.983218e-03
227           	5.936032e-03	1.213518e-03	1.158360e-03	3.963145e-03
228           	5.903236e-03	1.208407e-03	1.153594e-03	3.941930e-03
229           	5.870876e-03	1.203625e-03	1.149186e-03	3.921356e-03
230           	5.838820e-03	1.198885e-03	1.145035e-03	3.901410e-03
231           	5.806962e-03	1.194184e-03	1.140916e-03	3.882064e-03
232           	5.775511e-03	1.189580e-03	1.136944e-03	3.863638e-03
233           	5.744231e-03	1.185074e-03	1.133003e-03	3.846219e-03
234           	5.713325e-03	1.180339e-03	1.128866e-03	3.825052e-03
235           	5.682539e-03	1.175774e-03	1.124836e-03	3.806650e-03
236           	5.652132e-03	1.171258e-03	1.120955e-03	3.788026e-03
237           	5.622072e-03	1.166780e-03	1.117141e-03	3.769829e-03
238           	5.592536e-03	1.162359e-03	1.113453e-03	3.752241e-03
239           	5.564073e-03	1.158319e-03	1.111062e-03	3.737968e-03
240           	5.534591e-03	1.154023e-03	1.106849e-03	3.720463e-03
241           	5.505642e-03	1.149327e-03	1.102635e-03	3.702047e-03
242           	5.477129e-03	1.145015e-03	1.098819e-03	3.684574e-03
243           	5.448985e-03	1.140791e-03	1.095371e-03	3.668363e-03
244           	5.420827e-03	1.136637e-03	1.091905e-03	3.653412e-03
245           	5.392905e-03	1.132265e-03	1.088231e-03	3.634770e-03
246           	5.364995e-03	1.128069e-03	1.084659e-03	3.618760e-03
247           	5.337482e-03	1.123918e-03	1.081240e-03	3.602483e-03
248           	5.310311e-03	1.119794e-03	1.077861e-03	3.586555e-03
249           	5.283557e-03	1.115702e-03	1.074536e-03	3.571049e-03
250           	5.257158e-03	1.111650e-03	1.071285e-03	3.555957e-03
251           	5.231145e-03	1.107659e-03	1.068162e-03	3.541362e-03
252           	5.206269e-03	1.104272e-03	1.067108e-03	3.531778e-03
253           	5.180156e-03	1.100286e-03	1.062824e-03	3.516127e-03
254           	5.154602e-03	1.095970e-03	1.059163e-03	3.500834e-03
255           	5.129303e-03	1.092140e-03	1.055884e-03	3.487365e-03
256           	5.104243e-03	1.088092e-03	1.052636e-03	3.470659e-03
257           	5.078992e-03	1.084193e-03	1.049463e-03	3.456773e-03
258           	5.053949e-03	1.080353e-03	1.046421e-03	3.442697e-03
259           	5.029178e-03	1.076545e-03	1.043413e-03	3.428828e-03
260           	5.004779e-03	1.072762e-03	1.040456e-03	3.415291e-03
261           	4.980746e-03	1.069012e-03	1.037535e-03	3.402078e-03
262           	4.956999e-03	1.065295e-03	1.034669e-03	3.389213e-03
263           	4.933577e-03	1.061619e-03	1.031876e-03	3.376769e-03
264           	4.910553e-03	1.058007e-03	1.029225e-03	3.364886e-03
265           	4.888779e-03	1.055115e-03	1.028979e-03	3.359110e-03
266           	4.865559e-03	1.051537e-03	1.024962e-03	3.346981e-03
267           	4.842692e-03	1.047333e-03	1.021412e-03	3.331134e-03
268           	4.819905e-03	1.043720e-03	1.018340e-03	3.318735e-03
269           	4.797376e-03	1.040170e-03	1.015644e-03	3.306412e-03
270           	4.774912e-03	1.036634e-03	1.012970e-03	3.294660e-03
271           	4.752751e-03	1.033134e-03	1.010334e-03	3.283321e-03
272           	4.730812e-03	1.029670e-03	1.007734e-03	3.272202e-03
273           	4.709088e-03	1.026232e-03	1.005180e-03	3.261392e-03
274           	4.687674e-03	1.022826e-03	1.002668e-03	3.250914e-03
275           	4.666542e-03	1.019458e-03	1.000226e-03	3.240865e-03
276           	4.645805e-03	1.016168e-03	9.979344e-04	3.231756e-03
277           	4.625298e-03	1.012982e-03	9.957310e-04	3.223842e-03
278           	4.605689e-03	1.009979e-03	9.948060e-04	3.215886e-03
279           	4.584647e-03	1.006705e-03	9.916048e-04	3.206080e-03
280           	4.563932e-03	1.003038e-03	9.886512e-04	3.195106e-03
281           	4.543492e-03	9.997580e-04	9.860762e-04	3.185055e-03
282           	4.523384e-03	9.965216e-04	9.837660e-04	3.175659e-03
283           	4.503357e-03	9.932996e-04	9.814634e-04	3.166818e-03
284           	4.483455e-03	9.901110e-04	9.791865e-04	3.158275e-03
285           	4.463716e-03	9.869583e-04	9.769459e-04	3.149955e-03
286           	4.444224e-03	9.838401e-04	9.747674e-04	3.142027e-03
287           	4.425085e-03	9.807927e-04	9.727164e-04	3.134988e-03
288           	4.406081e-03	9.778216e-04	9.706864e-04	3.128971e-03
289           	4.387331e-03	9.746107e-04	9.684473e-04	3.119449e-03
290           	4.368622e-03	9.715798e-04	9.663586e-04	3.112645e-03
291           	4.350775e-03	9.689670e-04	9.657173e-04	3.108670e-03
292           	4.331813e-03	9.660167e-04	9.630654e-04	3.101200e-03
293           	4.313285e-03	9.626461e-04	9.604570e-04	3.092974e-03
294           	4.295075e-03	9.596553e-04	9.582115e-04	3.085597e-03
295           	4.277089e-03	9.567068e-04	9.562229e-04	3.078804e-03
296           	4.259088e-03	9.537703e-04	9.542402e-04	3.072548e-03
297           	4.241221e-03	9.508733e-04	9.523003e-04	3.066657e-03
298           	4.223590e-03	9.480481e-04	9.504837e-04	3.061563e-03
299           	4.206032e-03	9.452849e-04	9.486760e-04	3.057409e-03
300           	4.188670e-03	9.422795e-04	9.466437e-04	3.049690e-03
301           	4.171338e-03	9.394327e-04	9.447007e-04	3.044561e-03
302           	4.154232e-03	9.366288e-04	9.428936e-04	3.039247e-03
303           	4.137433e-03	9.338654e-04	9.411885e-04	3.034433e-03
304           	4.121634e-03	9.315288e-04	9.409163e-04	3.033169e-03
305           	4.104705e-03	9.288195e-04	9.384982e-04	3.028149e-03
306           	4.088077e-03	9.256962e-04	9.361735e-04	3.022315e-03
307           	4.071693e-03	9.229608e-04	9.342158e-04	3.017326e-03
308           	4.055496e-03	9.202671e-04	9.325291e-04	3.013030e-03
309           	4.039382e-03	9.176292e-04	9.309406e-04	3.009854e-03
310           	4.023191e-03	9.150674e-04	9.293435e-04	3.007599e-03
311           	4.007152e-03	9.122694e-04	9.275220e-04	3.001720e-03
312           	3.991075e-03	9.096260e-04	9.257875e-04	2.998404e-03
313           	3.975222e-03	9.070214e-04	9.241645e-04	2.994806e-03
314           	3.959621e-03	9.044318e-04	9.225634e-04	2.991515e-03
315           	3.944314e-03	9.018652e-04	9.210084e-04	2.988694e-03
316           	3.929328e-03	8.993427e-04	9.195617e-04	2.986364e-03
317           	3.915267e-03	8.973429e-04	9.198636e-04	2.988255e-03
318           	3.899946e-03	8.948294e-04	9.174447e-04	2.985215e-03
319           	3.884927e-03	8.919187e-04	9.153531e-04	2.981720e-03
320           	3.870263e-03	8.894652e-04	9.137251e-04	2.979781e-03
321           	3.855581e-03	8.870868e-04	9.123230e-04	2.979119e-03
322           	3.840862e-03	8.844509e-04	9.106733e-04	2.975145e-03
323           	3.826039e-03	8.819832e-04	9.090923e-04	2.973712e-03
324           	3.811346e-03	8.795611e-04	9.076268e-04	2.971906e-03
325           	3.796875e-03	8.771470e-04	9.061876e-04	2.970399e-03
326           	3.782722e-03	8.747538e-04	9.047703e-04	2.969237e-03
327           	3.768783e-03	8.723813e-04	9.033890e-04	2.968438e-03
328           	3.755027e-03	8.700378e-04	9.020553e-04	2.968031e-03
329           	3.741569e-03	8.677400e-04	9.008312e-04	2.968101e-03
330           	3.729135e-03	8.660702e-04	9.017036e-04	2.973211e-03
331           	3.715420e-03	8.637636e-04	8.993246e-04	2.972648e-03
332           	3.701940e-03	8.611286e-04	8.974690e-04	2.972613e-03
333           	3.688706e-03	8.586636e-04	8.957478e-04	2.969875e-03
334           	3.675448e-03	8.563701e-04	8.943432e-04	2.969941e-03
335           	3.662145e-03	8.540995e-04	8.930312e-04	2.969930e-03
336           	3.649009e-03	8.518510e-04	8.917333e-04	2.970187e-03
337           	3.636112e-03	8.496229e-04	8.904524e-04	2.970660e-03
338           	3.623435e-03	8.474113e-04	8.892014e-04	2.971394e-03
339           	3.611002e-03	8.452181e-04	8.879674e-04	2.972404e-03
340           	3.598777e-03	8.430431e-04	8.867753e-04	2.973712e-03
341           	3.586752e-03	8.408983e-04	8.856511e-04	2.975423e-03
342           	3.575107e-03	8.388402e-04	8.847085e-04	2.978096e-03
343           	3.564314e-03	8.373524e-04	8.854908e-04	2.985743e-03
344           	3.552264e-03	8.350574e-04	8.832665e-04	2.984558e-03
345           	3.540276e-03	8.324952e-04	8.814049e-04	2.985165e-03
346           	3.528501e-03	8.303556e-04	8.800033e-04	2.986154e-03
347           	3.516942e-03	8.282464e-04	8.788528e-04	2.987680e-03
348           	3.505459e-03	8.261408e-04	8.777037e-04	2.989680e-03
349           	3.494135e-03	8.240620e-04	8.765655e-04	2.991909e-03
350           	3.482905e-03	8.220050e-04	8.754423e-04	2.994284e-03
351           	3.471850e-03	8.199620e-04	8.743488e-04	2.996907e-03
352           	3.461018e-03	8.179486e-04	8.732949e-04	2.999875e-03
353           	3.450499e-03	8.159981e-04	8.723606e-04	3.003614e-03
354           	3.440100e-03	8.141085e-04	8.714416e-04	3.008346e-03
355           	3.429945e-03	8.119910e-04	8.703500e-04	3.009577e-03
356           	3.420452e-03	8.104656e-04	8.708295e-04	3.016873e-03
357           	3.409730e-03	8.085117e-04	8.690427e-04	3.019261e-03
358           	3.399305e-03	8.061446e-04	8.674163e-04	3.020924e-03
359           	3.389171e-03	8.041633e-04	8.661520e-04	3.023443e-03
360           	3.379214e-03	8.022135e-04	8.651367e-04	3.026424e-03
361           	3.369205e-03	8.002686e-04	8.641111e-04	3.029801e-03
362           	3.359273e-03	7.983538e-04	8.630967e-04	3.033314e-03
363           	3.349453e-03	7.964730e-04	8.621143e-04	3.037051e-03
364           	3.339914e-03	7.946496e-04	8.612525e-04	3.041641e-03
365           	3.330453e-03	7.928973e-04	8.603882e-04	3.047159e-03
366           	3.321168e-03	7.908922e-04	8.592983e-04	3.048942e-03
367           	3.311822e-03	7.890404e-04	8.582971e-04	3.053390e-03
368           	3.302653e-03	7.872421e-04	8.574780e-04	3.057741e-03
369           	3.294337e-03	7.858925e-04	8.581513e-04	3.065860e-03
370           	3.284894e-03	7.841211e-04	8.565393e-04	3.069834e-03
371           	3.275766e-03	7.819386e-04	8.550616e-04	3.073026e-03
372           	3.266802e-03	7.801428e-04	8.539372e-04	3.077030e-03
373           	3.257979e-03	7.783769e-04	8.530657e-04	3.081542e-03
374           	3.249069e-03	7.766236e-04	8.522032e-04	3.086616e-03
375           	3.240309e-03	7.749454e-04	8.514406e-04	3.092522e-03
376           	3.231510e-03	7.733285e-04	8.506519e-04	3.099181e-03
377           	3.222847e-03	7.714654e-04	8.496377e-04	3.102126e-03
378           	3.214186e-03	7.697588e-04	8.486831e-04	3.107598e-03
379           	3.205753e-03	7.680811e-04	8.478361e-04	3.112698e-03
380           	3.197495e-03	7.664132e-04	8.470079e-04	3.118075e-03
381           	3.189529e-03	7.647786e-04	8.462669e-04	3.123857e-03
382           	3.182547e-03	7.636458e-04	8.471790e-04	3.133772e-03
383           	3.174317e-03	7.620170e-04	8.455036e-04	3.138753e-03
384           	3.166358e-03	7.599838e-04	8.440720e-04	3.143032e-03
385           	3.158653e-03	7.583592e-04	8.430190e-04	3.148293e-03
386           	3.151127e-03	7.568090e-04	8.423117e-04	3.154685e-03
387           	3.143367e-03	7.552928e-04	8.415640e-04	3.162088e-03
388           	3.135676e-03	7.535453e-04	8.405737e-04	3.165591e-03
389           	3.127807e-03	7.519577e-04	8.396436e-04	3.171529e-03
390           	3.120092e-03	7.503955e-04	8.388283e-04	3.177030e-03
391           	3.112530e-03	7.488413e-04	8.380106e-04	3.182732e-03
392           	3.105152e-03	7.472947e-04	8.372054e-04	3.188732e-03
393           	3.097935e-03	7.457673e-04	8.364226e-04	3.195074e-03
394           	3.090925e-03	7.442828e-04	8.357387e-04	3.201733e-03
395           	3.084790e-03	7.433871e-04	8.370046e-04	3.213197e-03
396           	3.077286e-03	7.418585e-04	8.351624e-04	3.218565e-03
397           	3.070118e-03	7.399928e-04	8.338673e-04	3.224053e-03
398           	3.063020e-03	7.385885e-04	8.329068e-04	3.231199e-03
399           	3.055974e-03	7.369528e-04	8.319521e-04	3.234839e-03
400           	3.048589e-03	7.354539e-04	8.310443e-04	3.241136e-03
401           	3.041240e-03	7.339986e-04	8.302306e-04	3.246994e-03
402           	3.033986e-03	7.325580e-04	8.294131e-04	3.252934e-03
403           	3.026946e-03	7.311263e-04	8.286016e-04	3.259101e-03
404           	3.020034e-03	7.297106e-04	8.277986e-04	3.265529e-03
405           	3.013190e-03	7.283120e-04	8.270132e-04	3.272216e-03
406           	3.006519e-03	7.269347e-04	8.262671e-04	3.279222e-03
407           	3.000118e-03	7.256077e-04	8.256303e-04	3.286688e-03
408           	2.994682e-03	7.248946e-04	8.269542e-04	3.299463e-03
409           	2.987753e-03	7.236096e-04	8.252374e-04	3.306923e-03
410           	2.981012e-03	7.216688e-04	8.236586e-04	3.309734e-03
411           	2.974221e-03	7.202756e-04	8.225084e-04	3.315877e-03
412           	2.967503e-03	7.189281e-04	8.216957e-04	3.321789e-03
413           	2.960747e-03	7.175815e-04	8.208597e-04	3.328000e-03
414           	2.954169e-03	7.162591e-04	8.200153e-04	3.334342e-03
415           	2.947663e-03	7.149600e-04	8.191720e-04	3.340682e-03
416           	2.941186e-03	7.136699e-04	8.183369e-04	3.347182e-03
417           	2.934802e-03	7.123961e-04	8.175108e-04	3.353785e-03
418           	2.928524e-03	7.111463e-04	8.167292e-04	3.360647e-03
419           	2.922452e-03	7.099566e-04	8.160659e-04	3.368197e-03
420           	2.916417e-03	7.088420e-04	8.154611e-04	3.376828e-03
421           	2.911179e-03	7.079492e-04	8.162050e-04	3.385383e-03
422           	2.904369e-03	7.066932e-04	8.144421e-04	3.391196e-03
423           	2.897785e-03	7.050471e-04	8.129878e-04	3.395612e-03
424           	2.891304e-03	7.037853e-04	8.118784e-04	3.400765e-03
425           	2.885023e-03	7.025539e-04	8.110020e-04	3.406296e-03
426           	2.878714e-03	7.013252e-04	8.101035e-04	3.412110e-03
427           	2.872445e-03	7.001128e-04	8.092016e-04	3.418035e-03
428           	2.866269e-03	6.989212e-04	8.083114e-04	3.423884e-03
429           	2.860234e-03	6.977464e-04	8.074515e-04	3.429802e-03
430           	2.854468e-03	6.966275e-04	8.066918e-04	3.436493e-03
431           	2.848715e-03	6.955630e-04	8.059329e-04	3.444199e-03
432           	2.843044e-03	6.942512e-04	8.049392e-04	3.447860e-03
433           	2.837309e-03	6.931035e-04	8.040730e-04	3.454220e-03
434           	2.832284e-03	6.924130e-04	8.047800e-04	3.463831e-03
435           	2.825974e-03	6.912766e-04	8.031659e-04	3.468613e-03
436           	2.819898e-03	6.897297e-04	8.016770e-04	3.472492e-03
437           	2.813950e-03	6.885610e-04	8.005367e-04	3.477096e-03
438           	2.808068e-03	6.874186e-04	7.996347e-04	3.482068e-03
439           	2.802098e-03	6.862743e-04	7.987139e-04	3.487323e-03
440           	2.796149e-03	6.851581e-04	7.978186e-04	3.492526e-03
441           	2.790368e-03	6.841091e-04	7.970150e-04	3.498284e-03
442           	2.784578e-03	6.831063e-04	7.962000e-04	3.504894e-03
443           	2.778921e-03	6.818572e-04	7.951296e-04	3.507191e-03
444           	2.773204e-03	6.807522e-04	7.941228e-04	3.512110e-03
445           	2.767593e-03	6.796738e-04	7.932198e-04	3.516612e-03
446           	2.762113e-03	6.786213e-04	7.924010e-04	3.521311e-03